+ 1 0 2 tcp 40 ------- 0 0.0 3.0 0 0
- 1 0 2 tcp 40 ------- 0 0.0 3.0 0 0
r 1.33 0 2 tcp 40 ------- 0 0.0 3.0 0 0
+ 1.33 2 3 tcp 40 ------- 0 0.0 3.0 0 0
- 1.33 2 3 tcp 40 ------- 0 0.0 3.0 0 0
r 1.34032 2 3 tcp 40 ------- 0 0.0 3.0 0 0
+ 1.34032 3 2 ack 40 ------- 0 3.0 0.0 0 1
- 1.34032 3 2 ack 40 ------- 0 3.0 0.0 0 1
r 1.35064 3 2 ack 40 ------- 0 3.0 0.0 0 1
+ 1.35064 2 0 ack 40 ------- 0 3.0 0.0 0 1
- 1.35064 2 0 ack 40 ------- 0 3.0 0.0 0 1
r 1.68064 2 0 ack 40 ------- 0 3.0 0.0 0 1
+ 1.68064 0 2 tcp 1040 ------- 0 0.0 3.0 1 2
- 1.68064 0 2 tcp 1040 ------- 0 0.0 3.0 1 2
+ 1.68064 0 2 tcp 1040 ------- 0 0.0 3.0 2 3
+ 2.104092 1 2 tcp 40 ------- 0 1.0 3.1 0 4
- 2.104092 1 2 tcp 40 ------- 0 1.0 3.1 0 4
r 2.434092 1 2 tcp 40 ------- 0 1.0 3.1 0 4
+ 2.434092 2 3 tcp 40 ------- 0 1.0 3.1 0 4
- 2.434092 2 3 tcp 40 ------- 0 1.0 3.1 0 4
r 2.444412 2 3 tcp 40 ------- 0 1.0 3.1 0 4
+ 2.444412 3 2 ack 40 ------- 0 3.1 1.0 0 5
- 2.444412 3 2 ack 40 ------- 0 3.1 1.0 0 5
r 2.454732 3 2 ack 40 ------- 0 3.1 1.0 0 5
+ 2.454732 2 1 ack 40 ------- 0 3.1 1.0 0 5
- 2.454732 2 1 ack 40 ------- 0 3.1 1.0 0 5
r 2.784732 2 1 ack 40 ------- 0 3.1 1.0 0 5
+ 2.784732 1 2 tcp 1040 ------- 0 1.0 3.1 1 6
- 2.784732 1 2 tcp 1040 ------- 0 1.0 3.1 1 6
+ 2.784732 1 2 tcp 1040 ------- 0 1.0 3.1 2 7
+ 3.72064 0 2 tcp 1040 ---A--- 0 0.0 3.0 1 8
+ 4.824732 1 2 tcp 1040 ---A--- 0 1.0 3.1 1 9
+ 7.80064 0 2 tcp 1040 ---A--- 0 0.0 3.0 1 10
+ 8.904732 1 2 tcp 1040 ---A--- 0 1.0 3.1 1 11
