+ 1 0 2 cbr 1000 ------- 0 0.1 1073741824.0 0 0
- 1 0 2 cbr 1000 ------- 0 0.1 1073741824.0 0 0
+ 1 0 1 cbr 1000 ------- 0 0.1 1073741824.0 0 0
- 1 0 1 cbr 1000 ------- 0 0.1 1073741824.0 0 0
+ 1 0 4 cbr 1000 ------- 0 0.1 1073741824.0 0 0
- 1 0 4 cbr 1000 ------- 0 0.1 1073741824.0 0 0
+ 1 0 3 cbr 1000 ------- 0 0.1 1073741824.0 0 0
- 1 0 3 cbr 1000 ------- 0 0.1 1073741824.0 0 0
+ 1.008 0 2 cbr 1000 ------- 0 0.1 1073741824.0 1 1
- 1.008 0 2 cbr 1000 ------- 0 0.1 1073741824.0 1 1
+ 1.008 0 1 cbr 1000 ------- 0 0.1 1073741824.0 1 1
- 1.008 0 1 cbr 1000 ------- 0 0.1 1073741824.0 1 1
+ 1.008 0 4 cbr 1000 ------- 0 0.1 1073741824.0 1 1
- 1.008 0 4 cbr 1000 ------- 0 0.1 1073741824.0 1 1
+ 1.008 0 3 cbr 1000 ------- 0 0.1 1073741824.0 1 1
- 1.008 0 3 cbr 1000 ------- 0 0.1 1073741824.0 1 1
r 1.01008 0 2 cbr 1000 ------- 0 0.1 1073741824.0 0 0
+ 1.01008 2 0 prune 80 ------- 30 2.0 0.0 -1 2
- 1.01008 2 0 prune 80 ------- 30 2.0 0.0 -1 2
r 1.01008 0 1 cbr 1000 ------- 0 0.1 1073741824.0 0 0
+ 1.01008 1 0 prune 80 ------- 30 1.0 0.0 -1 3
- 1.01008 1 0 prune 80 ------- 30 1.0 0.0 -1 3
r 1.01008 0 4 cbr 1000 ------- 0 0.1 1073741824.0 0 0
+ 1.01008 4 0 prune 80 ------- 30 4.0 0.0 -1 4
- 1.01008 4 0 prune 80 ------- 30 4.0 0.0 -1 4
r 1.01008 0 3 cbr 1000 ------- 0 0.1 1073741824.0 0 0
+ 1.01008 3 0 prune 80 ------- 30 3.0 0.0 -1 5
- 1.01008 3 0 prune 80 ------- 30 3.0 0.0 -1 5
+ 1.016 0 2 cbr 1000 ------- 0 0.1 1073741824.0 2 6
- 1.016 0 2 cbr 1000 ------- 0 0.1 1073741824.0 2 6
+ 1.016 0 1 cbr 1000 ------- 0 0.1 1073741824.0 2 6
- 1.016 0 1 cbr 1000 ------- 0 0.1 1073741824.0 2 6
+ 1.016 0 4 cbr 1000 ------- 0 0.1 1073741824.0 2 6
- 1.016 0 4 cbr 1000 ------- 0 0.1 1073741824.0 2 6
+ 1.016 0 3 cbr 1000 ------- 0 0.1 1073741824.0 2 6
- 1.016 0 3 cbr 1000 ------- 0 0.1 1073741824.0 2 6
r 1.01808 0 2 cbr 1000 ------- 0 0.1 1073741824.0 1 1
+ 1.01808 2 0 prune 80 ------- 30 2.0 0.0 -1 7
- 1.01808 2 0 prune 80 ------- 30 2.0 0.0 -1 7
r 1.01808 0 1 cbr 1000 ------- 0 0.1 1073741824.0 1 1
+ 1.01808 1 0 prune 80 ------- 30 1.0 0.0 -1 8
- 1.01808 1 0 prune 80 ------- 30 1.0 0.0 -1 8
r 1.01808 0 4 cbr 1000 ------- 0 0.1 1073741824.0 1 1
+ 1.01808 4 0 prune 80 ------- 30 4.0 0.0 -1 9
- 1.01808 4 0 prune 80 ------- 30 4.0 0.0 -1 9
r 1.01808 0 3 cbr 1000 ------- 0 0.1 1073741824.0 1 1
+ 1.01808 3 0 prune 80 ------- 30 3.0 0.0 -1 10
- 1.01808 3 0 prune 80 ------- 30 3.0 0.0 -1 10
r 1.020086 2 0 prune 80 ------- 30 2.0 0.0 -1 2
r 1.020086 1 0 prune 80 ------- 30 1.0 0.0 -1 3
r 1.020086 4 0 prune 80 ------- 30 4.0 0.0 -1 4
r 1.020086 3 0 prune 80 ------- 30 3.0 0.0 -1 5
r 1.02608 0 2 cbr 1000 ------- 0 0.1 1073741824.0 2 6
+ 1.02608 2 0 prune 80 ------- 30 2.0 0.0 -1 12
- 1.02608 2 0 prune 80 ------- 30 2.0 0.0 -1 12
r 1.02608 0 1 cbr 1000 ------- 0 0.1 1073741824.0 2 6
+ 1.02608 1 0 prune 80 ------- 30 1.0 0.0 -1 13
- 1.02608 1 0 prune 80 ------- 30 1.0 0.0 -1 13
r 1.02608 0 4 cbr 1000 ------- 0 0.1 1073741824.0 2 6
+ 1.02608 4 0 prune 80 ------- 30 4.0 0.0 -1 14
- 1.02608 4 0 prune 80 ------- 30 4.0 0.0 -1 14
r 1.02608 0 3 cbr 1000 ------- 0 0.1 1073741824.0 2 6
+ 1.02608 3 0 prune 80 ------- 30 3.0 0.0 -1 15
- 1.02608 3 0 prune 80 ------- 30 3.0 0.0 -1 15
r 1.028086 2 0 prune 80 ------- 30 2.0 0.0 -1 7
r 1.028086 1 0 prune 80 ------- 30 1.0 0.0 -1 8
r 1.028086 4 0 prune 80 ------- 30 4.0 0.0 -1 9
r 1.028086 3 0 prune 80 ------- 30 3.0 0.0 -1 10
r 1.036086 2 0 prune 80 ------- 30 2.0 0.0 -1 12
r 1.036086 1 0 prune 80 ------- 30 1.0 0.0 -1 13
r 1.036086 4 0 prune 80 ------- 30 4.0 0.0 -1 14
r 1.036086 3 0 prune 80 ------- 30 3.0 0.0 -1 15
v 1.1 eval {set sim_annotation {1.1000000000000001 1 join-group 1073741824}}
+ 1.1 1 0 graft 80 ------- 31 1.0 0.0 -1 25
- 1.1 1 0 graft 80 ------- 31 1.0 0.0 -1 25
r 1.110006 1 0 graft 80 ------- 31 1.0 0.0 -1 25
+ 1.112 0 1 cbr 1000 ------- 0 0.1 1073741824.0 14 27
- 1.112 0 1 cbr 1000 ------- 0 0.1 1073741824.0 14 27
+ 1.12 0 1 cbr 1000 ------- 0 0.1 1073741824.0 15 28
- 1.12 0 1 cbr 1000 ------- 0 0.1 1073741824.0 15 28
r 1.12208 0 1 cbr 1000 ------- 0 0.1 1073741824.0 14 27
+ 1.128 0 1 cbr 1000 ------- 0 0.1 1073741824.0 16 29
- 1.128 0 1 cbr 1000 ------- 0 0.1 1073741824.0 16 29
r 1.13008 0 1 cbr 1000 ------- 0 0.1 1073741824.0 15 28
+ 1.136 0 1 cbr 1000 ------- 0 0.1 1073741824.0 17 30
- 1.136 0 1 cbr 1000 ------- 0 0.1 1073741824.0 17 30
r 1.13808 0 1 cbr 1000 ------- 0 0.1 1073741824.0 16 29
+ 1.144 0 1 cbr 1000 ------- 0 0.1 1073741824.0 18 31
- 1.144 0 1 cbr 1000 ------- 0 0.1 1073741824.0 18 31
r 1.14608 0 1 cbr 1000 ------- 0 0.1 1073741824.0 17 30
+ 1.152 0 1 cbr 1000 ------- 0 0.1 1073741824.0 19 32
- 1.152 0 1 cbr 1000 ------- 0 0.1 1073741824.0 19 32
r 1.15408 0 1 cbr 1000 ------- 0 0.1 1073741824.0 18 31
+ 1.16 0 1 cbr 1000 ------- 0 0.1 1073741824.0 20 33
- 1.16 0 1 cbr 1000 ------- 0 0.1 1073741824.0 20 33
r 1.16208 0 1 cbr 1000 ------- 0 0.1 1073741824.0 19 32
+ 1.168 0 1 cbr 1000 ------- 0 0.1 1073741824.0 21 34
- 1.168 0 1 cbr 1000 ------- 0 0.1 1073741824.0 21 34
r 1.17008 0 1 cbr 1000 ------- 0 0.1 1073741824.0 20 33
+ 1.176 0 1 cbr 1000 ------- 0 0.1 1073741824.0 22 35
- 1.176 0 1 cbr 1000 ------- 0 0.1 1073741824.0 22 35
r 1.17808 0 1 cbr 1000 ------- 0 0.1 1073741824.0 21 34
+ 1.184 0 1 cbr 1000 ------- 0 0.1 1073741824.0 23 36
- 1.184 0 1 cbr 1000 ------- 0 0.1 1073741824.0 23 36
r 1.18608 0 1 cbr 1000 ------- 0 0.1 1073741824.0 22 35
+ 1.192 0 1 cbr 1000 ------- 0 0.1 1073741824.0 24 37
- 1.192 0 1 cbr 1000 ------- 0 0.1 1073741824.0 24 37
r 1.19408 0 1 cbr 1000 ------- 0 0.1 1073741824.0 23 36
v 1.2 eval {set sim_annotation {1.2 2 join-group 1073741824}}
+ 1.2 2 0 graft 80 ------- 31 2.0 0.0 -1 38
- 1.2 2 0 graft 80 ------- 31 2.0 0.0 -1 38
+ 1.2 0 1 cbr 1000 ------- 0 0.1 1073741824.0 25 39
- 1.2 0 1 cbr 1000 ------- 0 0.1 1073741824.0 25 39
r 1.20208 0 1 cbr 1000 ------- 0 0.1 1073741824.0 24 37
+ 1.208 0 1 cbr 1000 ------- 0 0.1 1073741824.0 26 40
- 1.208 0 1 cbr 1000 ------- 0 0.1 1073741824.0 26 40
r 1.210006 2 0 graft 80 ------- 31 2.0 0.0 -1 38
r 1.21008 0 1 cbr 1000 ------- 0 0.1 1073741824.0 25 39
+ 1.216 0 1 cbr 1000 ------- 0 0.1 1073741824.0 27 41
- 1.216 0 1 cbr 1000 ------- 0 0.1 1073741824.0 27 41
+ 1.216 0 2 cbr 1000 ------- 0 0.1 1073741824.0 27 41
- 1.216 0 2 cbr 1000 ------- 0 0.1 1073741824.0 27 41
r 1.21808 0 1 cbr 1000 ------- 0 0.1 1073741824.0 26 40
+ 1.224 0 1 cbr 1000 ------- 0 0.1 1073741824.0 28 42
- 1.224 0 1 cbr 1000 ------- 0 0.1 1073741824.0 28 42
+ 1.224 0 2 cbr 1000 ------- 0 0.1 1073741824.0 28 42
- 1.224 0 2 cbr 1000 ------- 0 0.1 1073741824.0 28 42
r 1.22608 0 1 cbr 1000 ------- 0 0.1 1073741824.0 27 41
r 1.22608 0 2 cbr 1000 ------- 0 0.1 1073741824.0 27 41
+ 1.232 0 1 cbr 1000 ------- 0 0.1 1073741824.0 29 43
- 1.232 0 1 cbr 1000 ------- 0 0.1 1073741824.0 29 43
+ 1.232 0 2 cbr 1000 ------- 0 0.1 1073741824.0 29 43
- 1.232 0 2 cbr 1000 ------- 0 0.1 1073741824.0 29 43
r 1.23408 0 1 cbr 1000 ------- 0 0.1 1073741824.0 28 42
r 1.23408 0 2 cbr 1000 ------- 0 0.1 1073741824.0 28 42
+ 1.24 0 1 cbr 1000 ------- 0 0.1 1073741824.0 30 44
- 1.24 0 1 cbr 1000 ------- 0 0.1 1073741824.0 30 44
+ 1.24 0 2 cbr 1000 ------- 0 0.1 1073741824.0 30 44
- 1.24 0 2 cbr 1000 ------- 0 0.1 1073741824.0 30 44
r 1.24208 0 1 cbr 1000 ------- 0 0.1 1073741824.0 29 43
r 1.24208 0 2 cbr 1000 ------- 0 0.1 1073741824.0 29 43
+ 1.248 0 1 cbr 1000 ------- 0 0.1 1073741824.0 31 45
- 1.248 0 1 cbr 1000 ------- 0 0.1 1073741824.0 31 45
+ 1.248 0 2 cbr 1000 ------- 0 0.1 1073741824.0 31 45
- 1.248 0 2 cbr 1000 ------- 0 0.1 1073741824.0 31 45
r 1.25008 0 1 cbr 1000 ------- 0 0.1 1073741824.0 30 44
r 1.25008 0 2 cbr 1000 ------- 0 0.1 1073741824.0 30 44
+ 1.256 0 1 cbr 1000 ------- 0 0.1 1073741824.0 32 46
- 1.256 0 1 cbr 1000 ------- 0 0.1 1073741824.0 32 46
+ 1.256 0 2 cbr 1000 ------- 0 0.1 1073741824.0 32 46
- 1.256 0 2 cbr 1000 ------- 0 0.1 1073741824.0 32 46
r 1.25808 0 1 cbr 1000 ------- 0 0.1 1073741824.0 31 45
r 1.25808 0 2 cbr 1000 ------- 0 0.1 1073741824.0 31 45
+ 1.264 0 1 cbr 1000 ------- 0 0.1 1073741824.0 33 47
- 1.264 0 1 cbr 1000 ------- 0 0.1 1073741824.0 33 47
+ 1.264 0 2 cbr 1000 ------- 0 0.1 1073741824.0 33 47
- 1.264 0 2 cbr 1000 ------- 0 0.1 1073741824.0 33 47
r 1.26608 0 1 cbr 1000 ------- 0 0.1 1073741824.0 32 46
r 1.26608 0 2 cbr 1000 ------- 0 0.1 1073741824.0 32 46
+ 1.272 0 1 cbr 1000 ------- 0 0.1 1073741824.0 34 48
- 1.272 0 1 cbr 1000 ------- 0 0.1 1073741824.0 34 48
+ 1.272 0 2 cbr 1000 ------- 0 0.1 1073741824.0 34 48
- 1.272 0 2 cbr 1000 ------- 0 0.1 1073741824.0 34 48
r 1.27408 0 1 cbr 1000 ------- 0 0.1 1073741824.0 33 47
r 1.27408 0 2 cbr 1000 ------- 0 0.1 1073741824.0 33 47
+ 1.28 0 1 cbr 1000 ------- 0 0.1 1073741824.0 35 49
- 1.28 0 1 cbr 1000 ------- 0 0.1 1073741824.0 35 49
+ 1.28 0 2 cbr 1000 ------- 0 0.1 1073741824.0 35 49
- 1.28 0 2 cbr 1000 ------- 0 0.1 1073741824.0 35 49
r 1.28208 0 1 cbr 1000 ------- 0 0.1 1073741824.0 34 48
r 1.28208 0 2 cbr 1000 ------- 0 0.1 1073741824.0 34 48
+ 1.288 0 1 cbr 1000 ------- 0 0.1 1073741824.0 36 50
- 1.288 0 1 cbr 1000 ------- 0 0.1 1073741824.0 36 50
+ 1.288 0 2 cbr 1000 ------- 0 0.1 1073741824.0 36 50
- 1.288 0 2 cbr 1000 ------- 0 0.1 1073741824.0 36 50
r 1.29008 0 1 cbr 1000 ------- 0 0.1 1073741824.0 35 49
r 1.29008 0 2 cbr 1000 ------- 0 0.1 1073741824.0 35 49
+ 1.296 0 1 cbr 1000 ------- 0 0.1 1073741824.0 37 51
- 1.296 0 1 cbr 1000 ------- 0 0.1 1073741824.0 37 51
+ 1.296 0 2 cbr 1000 ------- 0 0.1 1073741824.0 37 51
- 1.296 0 2 cbr 1000 ------- 0 0.1 1073741824.0 37 51
r 1.29808 0 1 cbr 1000 ------- 0 0.1 1073741824.0 36 50
r 1.29808 0 2 cbr 1000 ------- 0 0.1 1073741824.0 36 50
v 1.3 eval {set sim_annotation {1.3 3 join-group 1073741824}}
+ 1.3 3 0 graft 80 ------- 31 3.0 0.0 -1 52
- 1.3 3 0 graft 80 ------- 31 3.0 0.0 -1 52
+ 1.304 0 1 cbr 1000 ------- 0 0.1 1073741824.0 38 53
- 1.304 0 1 cbr 1000 ------- 0 0.1 1073741824.0 38 53
+ 1.304 0 2 cbr 1000 ------- 0 0.1 1073741824.0 38 53
- 1.304 0 2 cbr 1000 ------- 0 0.1 1073741824.0 38 53
r 1.30608 0 1 cbr 1000 ------- 0 0.1 1073741824.0 37 51
r 1.30608 0 2 cbr 1000 ------- 0 0.1 1073741824.0 37 51
r 1.310006 3 0 graft 80 ------- 31 3.0 0.0 -1 52
+ 1.312 0 1 cbr 1000 ------- 0 0.1 1073741824.0 39 54
- 1.312 0 1 cbr 1000 ------- 0 0.1 1073741824.0 39 54
+ 1.312 0 2 cbr 1000 ------- 0 0.1 1073741824.0 39 54
- 1.312 0 2 cbr 1000 ------- 0 0.1 1073741824.0 39 54
+ 1.312 0 3 cbr 1000 ------- 0 0.1 1073741824.0 39 54
- 1.312 0 3 cbr 1000 ------- 0 0.1 1073741824.0 39 54
r 1.31408 0 1 cbr 1000 ------- 0 0.1 1073741824.0 38 53
r 1.31408 0 2 cbr 1000 ------- 0 0.1 1073741824.0 38 53
+ 1.32 0 1 cbr 1000 ------- 0 0.1 1073741824.0 40 55
- 1.32 0 1 cbr 1000 ------- 0 0.1 1073741824.0 40 55
+ 1.32 0 2 cbr 1000 ------- 0 0.1 1073741824.0 40 55
- 1.32 0 2 cbr 1000 ------- 0 0.1 1073741824.0 40 55
+ 1.32 0 3 cbr 1000 ------- 0 0.1 1073741824.0 40 55
- 1.32 0 3 cbr 1000 ------- 0 0.1 1073741824.0 40 55
r 1.32208 0 1 cbr 1000 ------- 0 0.1 1073741824.0 39 54
r 1.32208 0 2 cbr 1000 ------- 0 0.1 1073741824.0 39 54
r 1.32208 0 3 cbr 1000 ------- 0 0.1 1073741824.0 39 54
+ 1.328 0 1 cbr 1000 ------- 0 0.1 1073741824.0 41 56
- 1.328 0 1 cbr 1000 ------- 0 0.1 1073741824.0 41 56
+ 1.328 0 2 cbr 1000 ------- 0 0.1 1073741824.0 41 56
- 1.328 0 2 cbr 1000 ------- 0 0.1 1073741824.0 41 56
+ 1.328 0 3 cbr 1000 ------- 0 0.1 1073741824.0 41 56
- 1.328 0 3 cbr 1000 ------- 0 0.1 1073741824.0 41 56
r 1.33008 0 1 cbr 1000 ------- 0 0.1 1073741824.0 40 55
r 1.33008 0 2 cbr 1000 ------- 0 0.1 1073741824.0 40 55
r 1.33008 0 3 cbr 1000 ------- 0 0.1 1073741824.0 40 55
+ 1.336 0 1 cbr 1000 ------- 0 0.1 1073741824.0 42 57
- 1.336 0 1 cbr 1000 ------- 0 0.1 1073741824.0 42 57
+ 1.336 0 2 cbr 1000 ------- 0 0.1 1073741824.0 42 57
- 1.336 0 2 cbr 1000 ------- 0 0.1 1073741824.0 42 57
+ 1.336 0 3 cbr 1000 ------- 0 0.1 1073741824.0 42 57
- 1.336 0 3 cbr 1000 ------- 0 0.1 1073741824.0 42 57
r 1.33808 0 1 cbr 1000 ------- 0 0.1 1073741824.0 41 56
r 1.33808 0 2 cbr 1000 ------- 0 0.1 1073741824.0 41 56
r 1.33808 0 3 cbr 1000 ------- 0 0.1 1073741824.0 41 56
+ 1.344 0 1 cbr 1000 ------- 0 0.1 1073741824.0 43 58
- 1.344 0 1 cbr 1000 ------- 0 0.1 1073741824.0 43 58
+ 1.344 0 2 cbr 1000 ------- 0 0.1 1073741824.0 43 58
- 1.344 0 2 cbr 1000 ------- 0 0.1 1073741824.0 43 58
+ 1.344 0 3 cbr 1000 ------- 0 0.1 1073741824.0 43 58
- 1.344 0 3 cbr 1000 ------- 0 0.1 1073741824.0 43 58
r 1.34608 0 1 cbr 1000 ------- 0 0.1 1073741824.0 42 57
r 1.34608 0 2 cbr 1000 ------- 0 0.1 1073741824.0 42 57
r 1.34608 0 3 cbr 1000 ------- 0 0.1 1073741824.0 42 57
+ 1.352 0 1 cbr 1000 ------- 0 0.1 1073741824.0 44 59
- 1.352 0 1 cbr 1000 ------- 0 0.1 1073741824.0 44 59
+ 1.352 0 2 cbr 1000 ------- 0 0.1 1073741824.0 44 59
- 1.352 0 2 cbr 1000 ------- 0 0.1 1073741824.0 44 59
+ 1.352 0 3 cbr 1000 ------- 0 0.1 1073741824.0 44 59
- 1.352 0 3 cbr 1000 ------- 0 0.1 1073741824.0 44 59
r 1.35408 0 1 cbr 1000 ------- 0 0.1 1073741824.0 43 58
r 1.35408 0 2 cbr 1000 ------- 0 0.1 1073741824.0 43 58
r 1.35408 0 3 cbr 1000 ------- 0 0.1 1073741824.0 43 58
+ 1.36 0 1 cbr 1000 ------- 0 0.1 1073741824.0 45 60
- 1.36 0 1 cbr 1000 ------- 0 0.1 1073741824.0 45 60
+ 1.36 0 2 cbr 1000 ------- 0 0.1 1073741824.0 45 60
- 1.36 0 2 cbr 1000 ------- 0 0.1 1073741824.0 45 60
+ 1.36 0 3 cbr 1000 ------- 0 0.1 1073741824.0 45 60
- 1.36 0 3 cbr 1000 ------- 0 0.1 1073741824.0 45 60
r 1.36208 0 1 cbr 1000 ------- 0 0.1 1073741824.0 44 59
r 1.36208 0 2 cbr 1000 ------- 0 0.1 1073741824.0 44 59
r 1.36208 0 3 cbr 1000 ------- 0 0.1 1073741824.0 44 59
+ 1.368 0 1 cbr 1000 ------- 0 0.1 1073741824.0 46 61
- 1.368 0 1 cbr 1000 ------- 0 0.1 1073741824.0 46 61
+ 1.368 0 2 cbr 1000 ------- 0 0.1 1073741824.0 46 61
- 1.368 0 2 cbr 1000 ------- 0 0.1 1073741824.0 46 61
+ 1.368 0 3 cbr 1000 ------- 0 0.1 1073741824.0 46 61
- 1.368 0 3 cbr 1000 ------- 0 0.1 1073741824.0 46 61
r 1.37008 0 1 cbr 1000 ------- 0 0.1 1073741824.0 45 60
r 1.37008 0 2 cbr 1000 ------- 0 0.1 1073741824.0 45 60
r 1.37008 0 3 cbr 1000 ------- 0 0.1 1073741824.0 45 60
+ 1.376 0 1 cbr 1000 ------- 0 0.1 1073741824.0 47 62
- 1.376 0 1 cbr 1000 ------- 0 0.1 1073741824.0 47 62
+ 1.376 0 2 cbr 1000 ------- 0 0.1 1073741824.0 47 62
- 1.376 0 2 cbr 1000 ------- 0 0.1 1073741824.0 47 62
+ 1.376 0 3 cbr 1000 ------- 0 0.1 1073741824.0 47 62
- 1.376 0 3 cbr 1000 ------- 0 0.1 1073741824.0 47 62
r 1.37808 0 1 cbr 1000 ------- 0 0.1 1073741824.0 46 61
r 1.37808 0 2 cbr 1000 ------- 0 0.1 1073741824.0 46 61
r 1.37808 0 3 cbr 1000 ------- 0 0.1 1073741824.0 46 61
+ 1.384 0 1 cbr 1000 ------- 0 0.1 1073741824.0 48 63
- 1.384 0 1 cbr 1000 ------- 0 0.1 1073741824.0 48 63
+ 1.384 0 2 cbr 1000 ------- 0 0.1 1073741824.0 48 63
- 1.384 0 2 cbr 1000 ------- 0 0.1 1073741824.0 48 63
+ 1.384 0 3 cbr 1000 ------- 0 0.1 1073741824.0 48 63
- 1.384 0 3 cbr 1000 ------- 0 0.1 1073741824.0 48 63
r 1.38608 0 1 cbr 1000 ------- 0 0.1 1073741824.0 47 62
r 1.38608 0 2 cbr 1000 ------- 0 0.1 1073741824.0 47 62
r 1.38608 0 3 cbr 1000 ------- 0 0.1 1073741824.0 47 62
+ 1.392 0 1 cbr 1000 ------- 0 0.1 1073741824.0 49 64
- 1.392 0 1 cbr 1000 ------- 0 0.1 1073741824.0 49 64
+ 1.392 0 2 cbr 1000 ------- 0 0.1 1073741824.0 49 64
- 1.392 0 2 cbr 1000 ------- 0 0.1 1073741824.0 49 64
+ 1.392 0 3 cbr 1000 ------- 0 0.1 1073741824.0 49 64
- 1.392 0 3 cbr 1000 ------- 0 0.1 1073741824.0 49 64
r 1.39408 0 1 cbr 1000 ------- 0 0.1 1073741824.0 48 63
r 1.39408 0 2 cbr 1000 ------- 0 0.1 1073741824.0 48 63
r 1.39408 0 3 cbr 1000 ------- 0 0.1 1073741824.0 48 63
v 1.4 eval {set sim_annotation {1.3999999999999999 4 join-group 1073741824}}
+ 1.4 4 0 graft 80 ------- 31 4.0 0.0 -1 65
- 1.4 4 0 graft 80 ------- 31 4.0 0.0 -1 65
+ 1.4 0 1 cbr 1000 ------- 0 0.1 1073741824.0 50 66
- 1.4 0 1 cbr 1000 ------- 0 0.1 1073741824.0 50 66
+ 1.4 0 2 cbr 1000 ------- 0 0.1 1073741824.0 50 66
- 1.4 0 2 cbr 1000 ------- 0 0.1 1073741824.0 50 66
+ 1.4 0 3 cbr 1000 ------- 0 0.1 1073741824.0 50 66
- 1.4 0 3 cbr 1000 ------- 0 0.1 1073741824.0 50 66
r 1.40208 0 1 cbr 1000 ------- 0 0.1 1073741824.0 49 64
r 1.40208 0 2 cbr 1000 ------- 0 0.1 1073741824.0 49 64
r 1.40208 0 3 cbr 1000 ------- 0 0.1 1073741824.0 49 64
+ 1.408 0 1 cbr 1000 ------- 0 0.1 1073741824.0 51 67
- 1.408 0 1 cbr 1000 ------- 0 0.1 1073741824.0 51 67
+ 1.408 0 2 cbr 1000 ------- 0 0.1 1073741824.0 51 67
- 1.408 0 2 cbr 1000 ------- 0 0.1 1073741824.0 51 67
+ 1.408 0 3 cbr 1000 ------- 0 0.1 1073741824.0 51 67
- 1.408 0 3 cbr 1000 ------- 0 0.1 1073741824.0 51 67
r 1.410006 4 0 graft 80 ------- 31 4.0 0.0 -1 65
r 1.41008 0 1 cbr 1000 ------- 0 0.1 1073741824.0 50 66
r 1.41008 0 2 cbr 1000 ------- 0 0.1 1073741824.0 50 66
r 1.41008 0 3 cbr 1000 ------- 0 0.1 1073741824.0 50 66
+ 1.416 0 1 cbr 1000 ------- 0 0.1 1073741824.0 52 68
- 1.416 0 1 cbr 1000 ------- 0 0.1 1073741824.0 52 68
+ 1.416 0 2 cbr 1000 ------- 0 0.1 1073741824.0 52 68
- 1.416 0 2 cbr 1000 ------- 0 0.1 1073741824.0 52 68
+ 1.416 0 3 cbr 1000 ------- 0 0.1 1073741824.0 52 68
- 1.416 0 3 cbr 1000 ------- 0 0.1 1073741824.0 52 68
+ 1.416 0 4 cbr 1000 ------- 0 0.1 1073741824.0 52 68
- 1.416 0 4 cbr 1000 ------- 0 0.1 1073741824.0 52 68
r 1.41808 0 1 cbr 1000 ------- 0 0.1 1073741824.0 51 67
r 1.41808 0 2 cbr 1000 ------- 0 0.1 1073741824.0 51 67
r 1.41808 0 3 cbr 1000 ------- 0 0.1 1073741824.0 51 67
+ 1.424 0 1 cbr 1000 ------- 0 0.1 1073741824.0 53 69
- 1.424 0 1 cbr 1000 ------- 0 0.1 1073741824.0 53 69
+ 1.424 0 2 cbr 1000 ------- 0 0.1 1073741824.0 53 69
- 1.424 0 2 cbr 1000 ------- 0 0.1 1073741824.0 53 69
+ 1.424 0 3 cbr 1000 ------- 0 0.1 1073741824.0 53 69
- 1.424 0 3 cbr 1000 ------- 0 0.1 1073741824.0 53 69
+ 1.424 0 4 cbr 1000 ------- 0 0.1 1073741824.0 53 69
- 1.424 0 4 cbr 1000 ------- 0 0.1 1073741824.0 53 69
r 1.42608 0 1 cbr 1000 ------- 0 0.1 1073741824.0 52 68
r 1.42608 0 2 cbr 1000 ------- 0 0.1 1073741824.0 52 68
r 1.42608 0 3 cbr 1000 ------- 0 0.1 1073741824.0 52 68
r 1.42608 0 4 cbr 1000 ------- 0 0.1 1073741824.0 52 68
+ 1.432 0 1 cbr 1000 ------- 0 0.1 1073741824.0 54 70
- 1.432 0 1 cbr 1000 ------- 0 0.1 1073741824.0 54 70
+ 1.432 0 2 cbr 1000 ------- 0 0.1 1073741824.0 54 70
- 1.432 0 2 cbr 1000 ------- 0 0.1 1073741824.0 54 70
+ 1.432 0 3 cbr 1000 ------- 0 0.1 1073741824.0 54 70
- 1.432 0 3 cbr 1000 ------- 0 0.1 1073741824.0 54 70
+ 1.432 0 4 cbr 1000 ------- 0 0.1 1073741824.0 54 70
- 1.432 0 4 cbr 1000 ------- 0 0.1 1073741824.0 54 70
r 1.43408 0 1 cbr 1000 ------- 0 0.1 1073741824.0 53 69
r 1.43408 0 2 cbr 1000 ------- 0 0.1 1073741824.0 53 69
r 1.43408 0 3 cbr 1000 ------- 0 0.1 1073741824.0 53 69
r 1.43408 0 4 cbr 1000 ------- 0 0.1 1073741824.0 53 69
+ 1.44 0 1 cbr 1000 ------- 0 0.1 1073741824.0 55 71
- 1.44 0 1 cbr 1000 ------- 0 0.1 1073741824.0 55 71
+ 1.44 0 2 cbr 1000 ------- 0 0.1 1073741824.0 55 71
- 1.44 0 2 cbr 1000 ------- 0 0.1 1073741824.0 55 71
+ 1.44 0 3 cbr 1000 ------- 0 0.1 1073741824.0 55 71
- 1.44 0 3 cbr 1000 ------- 0 0.1 1073741824.0 55 71
+ 1.44 0 4 cbr 1000 ------- 0 0.1 1073741824.0 55 71
- 1.44 0 4 cbr 1000 ------- 0 0.1 1073741824.0 55 71
r 1.44208 0 1 cbr 1000 ------- 0 0.1 1073741824.0 54 70
r 1.44208 0 2 cbr 1000 ------- 0 0.1 1073741824.0 54 70
r 1.44208 0 3 cbr 1000 ------- 0 0.1 1073741824.0 54 70
r 1.44208 0 4 cbr 1000 ------- 0 0.1 1073741824.0 54 70
+ 1.448 0 1 cbr 1000 ------- 0 0.1 1073741824.0 56 72
- 1.448 0 1 cbr 1000 ------- 0 0.1 1073741824.0 56 72
+ 1.448 0 2 cbr 1000 ------- 0 0.1 1073741824.0 56 72
- 1.448 0 2 cbr 1000 ------- 0 0.1 1073741824.0 56 72
+ 1.448 0 3 cbr 1000 ------- 0 0.1 1073741824.0 56 72
- 1.448 0 3 cbr 1000 ------- 0 0.1 1073741824.0 56 72
+ 1.448 0 4 cbr 1000 ------- 0 0.1 1073741824.0 56 72
- 1.448 0 4 cbr 1000 ------- 0 0.1 1073741824.0 56 72
r 1.45008 0 1 cbr 1000 ------- 0 0.1 1073741824.0 55 71
r 1.45008 0 2 cbr 1000 ------- 0 0.1 1073741824.0 55 71
r 1.45008 0 3 cbr 1000 ------- 0 0.1 1073741824.0 55 71
r 1.45008 0 4 cbr 1000 ------- 0 0.1 1073741824.0 55 71
+ 1.456 0 1 cbr 1000 ------- 0 0.1 1073741824.0 57 73
- 1.456 0 1 cbr 1000 ------- 0 0.1 1073741824.0 57 73
+ 1.456 0 2 cbr 1000 ------- 0 0.1 1073741824.0 57 73
- 1.456 0 2 cbr 1000 ------- 0 0.1 1073741824.0 57 73
+ 1.456 0 3 cbr 1000 ------- 0 0.1 1073741824.0 57 73
- 1.456 0 3 cbr 1000 ------- 0 0.1 1073741824.0 57 73
+ 1.456 0 4 cbr 1000 ------- 0 0.1 1073741824.0 57 73
- 1.456 0 4 cbr 1000 ------- 0 0.1 1073741824.0 57 73
r 1.45808 0 1 cbr 1000 ------- 0 0.1 1073741824.0 56 72
r 1.45808 0 2 cbr 1000 ------- 0 0.1 1073741824.0 56 72
r 1.45808 0 3 cbr 1000 ------- 0 0.1 1073741824.0 56 72
r 1.45808 0 4 cbr 1000 ------- 0 0.1 1073741824.0 56 72
+ 1.464 0 1 cbr 1000 ------- 0 0.1 1073741824.0 58 74
- 1.464 0 1 cbr 1000 ------- 0 0.1 1073741824.0 58 74
+ 1.464 0 2 cbr 1000 ------- 0 0.1 1073741824.0 58 74
- 1.464 0 2 cbr 1000 ------- 0 0.1 1073741824.0 58 74
+ 1.464 0 3 cbr 1000 ------- 0 0.1 1073741824.0 58 74
- 1.464 0 3 cbr 1000 ------- 0 0.1 1073741824.0 58 74
+ 1.464 0 4 cbr 1000 ------- 0 0.1 1073741824.0 58 74
- 1.464 0 4 cbr 1000 ------- 0 0.1 1073741824.0 58 74
r 1.46608 0 1 cbr 1000 ------- 0 0.1 1073741824.0 57 73
r 1.46608 0 2 cbr 1000 ------- 0 0.1 1073741824.0 57 73
r 1.46608 0 3 cbr 1000 ------- 0 0.1 1073741824.0 57 73
r 1.46608 0 4 cbr 1000 ------- 0 0.1 1073741824.0 57 73
+ 1.472 0 1 cbr 1000 ------- 0 0.1 1073741824.0 59 75
- 1.472 0 1 cbr 1000 ------- 0 0.1 1073741824.0 59 75
+ 1.472 0 2 cbr 1000 ------- 0 0.1 1073741824.0 59 75
- 1.472 0 2 cbr 1000 ------- 0 0.1 1073741824.0 59 75
+ 1.472 0 3 cbr 1000 ------- 0 0.1 1073741824.0 59 75
- 1.472 0 3 cbr 1000 ------- 0 0.1 1073741824.0 59 75
+ 1.472 0 4 cbr 1000 ------- 0 0.1 1073741824.0 59 75
- 1.472 0 4 cbr 1000 ------- 0 0.1 1073741824.0 59 75
r 1.47408 0 1 cbr 1000 ------- 0 0.1 1073741824.0 58 74
r 1.47408 0 2 cbr 1000 ------- 0 0.1 1073741824.0 58 74
r 1.47408 0 3 cbr 1000 ------- 0 0.1 1073741824.0 58 74
r 1.47408 0 4 cbr 1000 ------- 0 0.1 1073741824.0 58 74
+ 1.48 0 1 cbr 1000 ------- 0 0.1 1073741824.0 60 76
- 1.48 0 1 cbr 1000 ------- 0 0.1 1073741824.0 60 76
+ 1.48 0 2 cbr 1000 ------- 0 0.1 1073741824.0 60 76
- 1.48 0 2 cbr 1000 ------- 0 0.1 1073741824.0 60 76
+ 1.48 0 3 cbr 1000 ------- 0 0.1 1073741824.0 60 76
- 1.48 0 3 cbr 1000 ------- 0 0.1 1073741824.0 60 76
+ 1.48 0 4 cbr 1000 ------- 0 0.1 1073741824.0 60 76
- 1.48 0 4 cbr 1000 ------- 0 0.1 1073741824.0 60 76
r 1.48208 0 1 cbr 1000 ------- 0 0.1 1073741824.0 59 75
r 1.48208 0 2 cbr 1000 ------- 0 0.1 1073741824.0 59 75
r 1.48208 0 3 cbr 1000 ------- 0 0.1 1073741824.0 59 75
r 1.48208 0 4 cbr 1000 ------- 0 0.1 1073741824.0 59 75
+ 1.488 0 1 cbr 1000 ------- 0 0.1 1073741824.0 61 77
- 1.488 0 1 cbr 1000 ------- 0 0.1 1073741824.0 61 77
+ 1.488 0 2 cbr 1000 ------- 0 0.1 1073741824.0 61 77
- 1.488 0 2 cbr 1000 ------- 0 0.1 1073741824.0 61 77
+ 1.488 0 3 cbr 1000 ------- 0 0.1 1073741824.0 61 77
- 1.488 0 3 cbr 1000 ------- 0 0.1 1073741824.0 61 77
+ 1.488 0 4 cbr 1000 ------- 0 0.1 1073741824.0 61 77
- 1.488 0 4 cbr 1000 ------- 0 0.1 1073741824.0 61 77
r 1.49008 0 1 cbr 1000 ------- 0 0.1 1073741824.0 60 76
r 1.49008 0 2 cbr 1000 ------- 0 0.1 1073741824.0 60 76
r 1.49008 0 3 cbr 1000 ------- 0 0.1 1073741824.0 60 76
r 1.49008 0 4 cbr 1000 ------- 0 0.1 1073741824.0 60 76
+ 1.496 0 1 cbr 1000 ------- 0 0.1 1073741824.0 62 78
- 1.496 0 1 cbr 1000 ------- 0 0.1 1073741824.0 62 78
+ 1.496 0 2 cbr 1000 ------- 0 0.1 1073741824.0 62 78
- 1.496 0 2 cbr 1000 ------- 0 0.1 1073741824.0 62 78
+ 1.496 0 3 cbr 1000 ------- 0 0.1 1073741824.0 62 78
- 1.496 0 3 cbr 1000 ------- 0 0.1 1073741824.0 62 78
+ 1.496 0 4 cbr 1000 ------- 0 0.1 1073741824.0 62 78
- 1.496 0 4 cbr 1000 ------- 0 0.1 1073741824.0 62 78
r 1.49808 0 1 cbr 1000 ------- 0 0.1 1073741824.0 61 77
r 1.49808 0 2 cbr 1000 ------- 0 0.1 1073741824.0 61 77
r 1.49808 0 3 cbr 1000 ------- 0 0.1 1073741824.0 61 77
r 1.49808 0 4 cbr 1000 ------- 0 0.1 1073741824.0 61 77
+ 1.504 0 1 cbr 1000 ------- 0 0.1 1073741824.0 63 79
- 1.504 0 1 cbr 1000 ------- 0 0.1 1073741824.0 63 79
+ 1.504 0 2 cbr 1000 ------- 0 0.1 1073741824.0 63 79
- 1.504 0 2 cbr 1000 ------- 0 0.1 1073741824.0 63 79
+ 1.504 0 3 cbr 1000 ------- 0 0.1 1073741824.0 63 79
- 1.504 0 3 cbr 1000 ------- 0 0.1 1073741824.0 63 79
+ 1.504 0 4 cbr 1000 ------- 0 0.1 1073741824.0 63 79
- 1.504 0 4 cbr 1000 ------- 0 0.1 1073741824.0 63 79
r 1.50608 0 1 cbr 1000 ------- 0 0.1 1073741824.0 62 78
r 1.50608 0 2 cbr 1000 ------- 0 0.1 1073741824.0 62 78
r 1.50608 0 3 cbr 1000 ------- 0 0.1 1073741824.0 62 78
r 1.50608 0 4 cbr 1000 ------- 0 0.1 1073741824.0 62 78
+ 1.512 0 1 cbr 1000 ------- 0 0.1 1073741824.0 64 80
- 1.512 0 1 cbr 1000 ------- 0 0.1 1073741824.0 64 80
+ 1.512 0 2 cbr 1000 ------- 0 0.1 1073741824.0 64 80
- 1.512 0 2 cbr 1000 ------- 0 0.1 1073741824.0 64 80
+ 1.512 0 3 cbr 1000 ------- 0 0.1 1073741824.0 64 80
- 1.512 0 3 cbr 1000 ------- 0 0.1 1073741824.0 64 80
+ 1.512 0 4 cbr 1000 ------- 0 0.1 1073741824.0 64 80
- 1.512 0 4 cbr 1000 ------- 0 0.1 1073741824.0 64 80
r 1.51408 0 1 cbr 1000 ------- 0 0.1 1073741824.0 63 79
r 1.51408 0 2 cbr 1000 ------- 0 0.1 1073741824.0 63 79
r 1.51408 0 3 cbr 1000 ------- 0 0.1 1073741824.0 63 79
r 1.51408 0 4 cbr 1000 ------- 0 0.1 1073741824.0 63 79
+ 1.52 0 1 cbr 1000 ------- 0 0.1 1073741824.0 65 81
- 1.52 0 1 cbr 1000 ------- 0 0.1 1073741824.0 65 81
+ 1.52 0 2 cbr 1000 ------- 0 0.1 1073741824.0 65 81
- 1.52 0 2 cbr 1000 ------- 0 0.1 1073741824.0 65 81
+ 1.52 0 3 cbr 1000 ------- 0 0.1 1073741824.0 65 81
- 1.52 0 3 cbr 1000 ------- 0 0.1 1073741824.0 65 81
+ 1.52 0 4 cbr 1000 ------- 0 0.1 1073741824.0 65 81
- 1.52 0 4 cbr 1000 ------- 0 0.1 1073741824.0 65 81
r 1.52208 0 1 cbr 1000 ------- 0 0.1 1073741824.0 64 80
r 1.52208 0 2 cbr 1000 ------- 0 0.1 1073741824.0 64 80
r 1.52208 0 3 cbr 1000 ------- 0 0.1 1073741824.0 64 80
r 1.52208 0 4 cbr 1000 ------- 0 0.1 1073741824.0 64 80
+ 1.528 0 1 cbr 1000 ------- 0 0.1 1073741824.0 66 82
- 1.528 0 1 cbr 1000 ------- 0 0.1 1073741824.0 66 82
+ 1.528 0 2 cbr 1000 ------- 0 0.1 1073741824.0 66 82
- 1.528 0 2 cbr 1000 ------- 0 0.1 1073741824.0 66 82
+ 1.528 0 3 cbr 1000 ------- 0 0.1 1073741824.0 66 82
- 1.528 0 3 cbr 1000 ------- 0 0.1 1073741824.0 66 82
+ 1.528 0 4 cbr 1000 ------- 0 0.1 1073741824.0 66 82
- 1.528 0 4 cbr 1000 ------- 0 0.1 1073741824.0 66 82
r 1.53008 0 1 cbr 1000 ------- 0 0.1 1073741824.0 65 81
r 1.53008 0 2 cbr 1000 ------- 0 0.1 1073741824.0 65 81
r 1.53008 0 3 cbr 1000 ------- 0 0.1 1073741824.0 65 81
r 1.53008 0 4 cbr 1000 ------- 0 0.1 1073741824.0 65 81
+ 1.536 0 1 cbr 1000 ------- 0 0.1 1073741824.0 67 83
- 1.536 0 1 cbr 1000 ------- 0 0.1 1073741824.0 67 83
+ 1.536 0 2 cbr 1000 ------- 0 0.1 1073741824.0 67 83
- 1.536 0 2 cbr 1000 ------- 0 0.1 1073741824.0 67 83
+ 1.536 0 3 cbr 1000 ------- 0 0.1 1073741824.0 67 83
- 1.536 0 3 cbr 1000 ------- 0 0.1 1073741824.0 67 83
+ 1.536 0 4 cbr 1000 ------- 0 0.1 1073741824.0 67 83
- 1.536 0 4 cbr 1000 ------- 0 0.1 1073741824.0 67 83
r 1.53808 0 1 cbr 1000 ------- 0 0.1 1073741824.0 66 82
r 1.53808 0 2 cbr 1000 ------- 0 0.1 1073741824.0 66 82
r 1.53808 0 3 cbr 1000 ------- 0 0.1 1073741824.0 66 82
r 1.53808 0 4 cbr 1000 ------- 0 0.1 1073741824.0 66 82
+ 1.544 0 1 cbr 1000 ------- 0 0.1 1073741824.0 68 84
- 1.544 0 1 cbr 1000 ------- 0 0.1 1073741824.0 68 84
+ 1.544 0 2 cbr 1000 ------- 0 0.1 1073741824.0 68 84
- 1.544 0 2 cbr 1000 ------- 0 0.1 1073741824.0 68 84
+ 1.544 0 3 cbr 1000 ------- 0 0.1 1073741824.0 68 84
- 1.544 0 3 cbr 1000 ------- 0 0.1 1073741824.0 68 84
+ 1.544 0 4 cbr 1000 ------- 0 0.1 1073741824.0 68 84
- 1.544 0 4 cbr 1000 ------- 0 0.1 1073741824.0 68 84
r 1.54608 0 1 cbr 1000 ------- 0 0.1 1073741824.0 67 83
r 1.54608 0 2 cbr 1000 ------- 0 0.1 1073741824.0 67 83
r 1.54608 0 3 cbr 1000 ------- 0 0.1 1073741824.0 67 83
r 1.54608 0 4 cbr 1000 ------- 0 0.1 1073741824.0 67 83
+ 1.552 0 1 cbr 1000 ------- 0 0.1 1073741824.0 69 85
- 1.552 0 1 cbr 1000 ------- 0 0.1 1073741824.0 69 85
+ 1.552 0 2 cbr 1000 ------- 0 0.1 1073741824.0 69 85
- 1.552 0 2 cbr 1000 ------- 0 0.1 1073741824.0 69 85
+ 1.552 0 3 cbr 1000 ------- 0 0.1 1073741824.0 69 85
- 1.552 0 3 cbr 1000 ------- 0 0.1 1073741824.0 69 85
+ 1.552 0 4 cbr 1000 ------- 0 0.1 1073741824.0 69 85
- 1.552 0 4 cbr 1000 ------- 0 0.1 1073741824.0 69 85
r 1.55408 0 1 cbr 1000 ------- 0 0.1 1073741824.0 68 84
r 1.55408 0 2 cbr 1000 ------- 0 0.1 1073741824.0 68 84
r 1.55408 0 3 cbr 1000 ------- 0 0.1 1073741824.0 68 84
r 1.55408 0 4 cbr 1000 ------- 0 0.1 1073741824.0 68 84
+ 1.56 0 1 cbr 1000 ------- 0 0.1 1073741824.0 70 86
- 1.56 0 1 cbr 1000 ------- 0 0.1 1073741824.0 70 86
+ 1.56 0 2 cbr 1000 ------- 0 0.1 1073741824.0 70 86
- 1.56 0 2 cbr 1000 ------- 0 0.1 1073741824.0 70 86
+ 1.56 0 3 cbr 1000 ------- 0 0.1 1073741824.0 70 86
- 1.56 0 3 cbr 1000 ------- 0 0.1 1073741824.0 70 86
+ 1.56 0 4 cbr 1000 ------- 0 0.1 1073741824.0 70 86
- 1.56 0 4 cbr 1000 ------- 0 0.1 1073741824.0 70 86
r 1.56208 0 1 cbr 1000 ------- 0 0.1 1073741824.0 69 85
r 1.56208 0 2 cbr 1000 ------- 0 0.1 1073741824.0 69 85
r 1.56208 0 3 cbr 1000 ------- 0 0.1 1073741824.0 69 85
r 1.56208 0 4 cbr 1000 ------- 0 0.1 1073741824.0 69 85
+ 1.568 0 1 cbr 1000 ------- 0 0.1 1073741824.0 71 87
- 1.568 0 1 cbr 1000 ------- 0 0.1 1073741824.0 71 87
+ 1.568 0 2 cbr 1000 ------- 0 0.1 1073741824.0 71 87
- 1.568 0 2 cbr 1000 ------- 0 0.1 1073741824.0 71 87
+ 1.568 0 3 cbr 1000 ------- 0 0.1 1073741824.0 71 87
- 1.568 0 3 cbr 1000 ------- 0 0.1 1073741824.0 71 87
+ 1.568 0 4 cbr 1000 ------- 0 0.1 1073741824.0 71 87
- 1.568 0 4 cbr 1000 ------- 0 0.1 1073741824.0 71 87
r 1.57008 0 1 cbr 1000 ------- 0 0.1 1073741824.0 70 86
r 1.57008 0 2 cbr 1000 ------- 0 0.1 1073741824.0 70 86
r 1.57008 0 3 cbr 1000 ------- 0 0.1 1073741824.0 70 86
r 1.57008 0 4 cbr 1000 ------- 0 0.1 1073741824.0 70 86
+ 1.576 0 1 cbr 1000 ------- 0 0.1 1073741824.0 72 88
- 1.576 0 1 cbr 1000 ------- 0 0.1 1073741824.0 72 88
+ 1.576 0 2 cbr 1000 ------- 0 0.1 1073741824.0 72 88
- 1.576 0 2 cbr 1000 ------- 0 0.1 1073741824.0 72 88
+ 1.576 0 3 cbr 1000 ------- 0 0.1 1073741824.0 72 88