V -t * -v 1.0a5 -a 0
A -t * -n 1 -p 0 -o 0x7fffffff -c 30 -a 1
A -t * -h 1 -m 1073741823 -s 0
n -t * -a 4 -s 4 -S UP -v circle -c black -i black
n -t * -a 0 -s 0 -S UP -v circle -c black -i black
n -t * -a 1 -s 1 -S UP -v circle -c black -i black
n -t * -a 2 -s 2 -S UP -v circle -c black -i black
n -t * -a 3 -s 3 -S UP -v circle -c black -i black
l -t * -s 0 -d 1 -S UP -r 100000000 -D 0.01 -c black -o right
l -t * -s 0 -d 4 -S UP -r 100000000 -D 0.01 -c black -o right-up
l -t * -s 0 -d 3 -S UP -r 100000000 -D 0.01 -c black -o left
l -t * -s 0 -d 2 -S UP -r 100000000 -D 0.01 -c black -o right-down
+ -t 1 -s 0 -d 2 -p cbr -e 1000 -c 0 -i 0 -a 0 -x {0.1 1073741824.0 0 ------- null}
- -t 1 -s 0 -d 2 -p cbr -e 1000 -c 0 -i 0 -a 0 -x {0.1 1073741824.0 0 ------- null}
h -t 1 -s 0 -d 2 -p cbr -e 1000 -c 0 -i 0 -a 0 -x {0.1 1073741824.0 -1 ------- null}
+ -t 1 -s 0 -d 1 -p cbr -e 1000 -c 0 -i 0 -a 0 -x {0.1 1073741824.0 0 ------- null}
- -t 1 -s 0 -d 1 -p cbr -e 1000 -c 0 -i 0 -a 0 -x {0.1 1073741824.0 0 ------- null}
h -t 1 -s 0 -d 1 -p cbr -e 1000 -c 0 -i 0 -a 0 -x {0.1 1073741824.0 -1 ------- null}
+ -t 1 -s 0 -d 4 -p cbr -e 1000 -c 0 -i 0 -a 0 -x {0.1 1073741824.0 0 ------- null}
- -t 1 -s 0 -d 4 -p cbr -e 1000 -c 0 -i 0 -a 0 -x {0.1 1073741824.0 0 ------- null}
h -t 1 -s 0 -d 4 -p cbr -e 1000 -c 0 -i 0 -a 0 -x {0.1 1073741824.0 -1 ------- null}
+ -t 1 -s 0 -d 3 -p cbr -e 1000 -c 0 -i 0 -a 0 -x {0.1 1073741824.0 0 ------- null}
- -t 1 -s 0 -d 3 -p cbr -e 1000 -c 0 -i 0 -a 0 -x {0.1 1073741824.0 0 ------- null}
h -t 1 -s 0 -d 3 -p cbr -e 1000 -c 0 -i 0 -a 0 -x {0.1 1073741824.0 -1 ------- null}
+ -t 1.008 -s 0 -d 2 -p cbr -e 1000 -c 0 -i 1 -a 0 -x {0.1 1073741824.0 1 ------- null}
- -t 1.008 -s 0 -d 2 -p cbr -e 1000 -c 0 -i 1 -a 0 -x {0.1 1073741824.0 1 ------- null}
h -t 1.008 -s 0 -d 2 -p cbr -e 1000 -c 0 -i 1 -a 0 -x {0.1 1073741824.0 -1 ------- null}
+ -t 1.008 -s 0 -d 1 -p cbr -e 1000 -c 0 -i 1 -a 0 -x {0.1 1073741824.0 1 ------- null}
- -t 1.008 -s 0 -d 1 -p cbr -e 1000 -c 0 -i 1 -a 0 -x {0.1 1073741824.0 1 ------- null}
h -t 1.008 -s 0 -d 1 -p cbr -e 1000 -c 0 -i 1 -a 0 -x {0.1 1073741824.0 -1 ------- null}
+ -t 1.008 -s 0 -d 4 -p cbr -e 1000 -c 0 -i 1 -a 0 -x {0.1 1073741824.0 1 ------- null}
- -t 1.008 -s 0 -d 4 -p cbr -e 1000 -c 0 -i 1 -a 0 -x {0.1 1073741824.0 1 ------- null}
h -t 1.008 -s 0 -d 4 -p cbr -e 1000 -c 0 -i 1 -a 0 -x {0.1 1073741824.0 -1 ------- null}
+ -t 1.008 -s 0 -d 3 -p cbr -e 1000 -c 0 -i 1 -a 0 -x {0.1 1073741824.0 1 ------- null}
- -t 1.008 -s 0 -d 3 -p cbr -e 1000 -c 0 -i 1 -a 0 -x {0.1 1073741824.0 1 ------- null}
h -t 1.008 -s 0 -d 3 -p cbr -e 1000 -c 0 -i 1 -a 0 -x {0.1 1073741824.0 -1 ------- null}
r -t 1.01008 -s 0 -d 2 -p cbr -e 1000 -c 0 -i 0 -a 0 -x {0.1 1073741824.0 0 ------- null}
+ -t 1.01008 -s 2 -d 0 -p prune -e 80 -c 30 -i 2 -a 30 -x {2.0 0.0 -1 ------- null}
- -t 1.01008 -s 2 -d 0 -p prune -e 80 -c 30 -i 2 -a 30 -x {2.0 0.0 -1 ------- null}
h -t 1.01008 -s 2 -d 0 -p prune -e 80 -c 30 -i 2 -a 30 -x {2.0 0.0 -1 ------- null}
r -t 1.01008 -s 0 -d 1 -p cbr -e 1000 -c 0 -i 0 -a 0 -x {0.1 1073741824.0 0 ------- null}
+ -t 1.01008 -s 1 -d 0 -p prune -e 80 -c 30 -i 3 -a 30 -x {1.0 0.0 -1 ------- null}
- -t 1.01008 -s 1 -d 0 -p prune -e 80 -c 30 -i 3 -a 30 -x {1.0 0.0 -1 ------- null}
h -t 1.01008 -s 1 -d 0 -p prune -e 80 -c 30 -i 3 -a 30 -x {1.0 0.0 -1 ------- null}
r -t 1.01008 -s 0 -d 4 -p cbr -e 1000 -c 0 -i 0 -a 0 -x {0.1 1073741824.0 0 ------- null}
+ -t 1.01008 -s 4 -d 0 -p prune -e 80 -c 30 -i 4 -a 30 -x {4.0 0.0 -1 ------- null}
- -t 1.01008 -s 4 -d 0 -p prune -e 80 -c 30 -i 4 -a 30 -x {4.0 0.0 -1 ------- null}
h -t 1.01008 -s 4 -d 0 -p prune -e 80 -c 30 -i 4 -a 30 -x {4.0 0.0 -1 ------- null}
r -t 1.01008 -s 0 -d 3 -p cbr -e 1000 -c 0 -i 0 -a 0 -x {0.1 1073741824.0 0 ------- null}
+ -t 1.01008 -s 3 -d 0 -p prune -e 80 -c 30 -i 5 -a 30 -x {3.0 0.0 -1 ------- null}
- -t 1.01008 -s 3 -d 0 -p prune -e 80 -c 30 -i 5 -a 30 -x {3.0 0.0 -1 ------- null}
h -t 1.01008 -s 3 -d 0 -p prune -e 80 -c 30 -i 5 -a 30 -x {3.0 0.0 -1 ------- null}
+ -t 1.016 -s 0 -d 2 -p cbr -e 1000 -c 0 -i 6 -a 0 -x {0.1 1073741824.0 2 ------- null}
- -t 1.016 -s 0 -d 2 -p cbr -e 1000 -c 0 -i 6 -a 0 -x {0.1 1073741824.0 2 ------- null}
h -t 1.016 -s 0 -d 2 -p cbr -e 1000 -c 0 -i 6 -a 0 -x {0.1 1073741824.0 -1 ------- null}
+ -t 1.016 -s 0 -d 1 -p cbr -e 1000 -c 0 -i 6 -a 0 -x {0.1 1073741824.0 2 ------- null}
- -t 1.016 -s 0 -d 1 -p cbr -e 1000 -c 0 -i 6 -a 0 -x {0.1 1073741824.0 2 ------- null}
h -t 1.016 -s 0 -d 1 -p cbr -e 1000 -c 0 -i 6 -a 0 -x {0.1 1073741824.0 -1 ------- null}
+ -t 1.016 -s 0 -d 4 -p cbr -e 1000 -c 0 -i 6 -a 0 -x {0.1 1073741824.0 2 ------- null}
- -t 1.016 -s 0 -d 4 -p cbr -e 1000 -c 0 -i 6 -a 0 -x {0.1 1073741824.0 2 ------- null}
h -t 1.016 -s 0 -d 4 -p cbr -e 1000 -c 0 -i 6 -a 0 -x {0.1 1073741824.0 -1 ------- null}
+ -t 1.016 -s 0 -d 3 -p cbr -e 1000 -c 0 -i 6 -a 0 -x {0.1 1073741824.0 2 ------- null}
- -t 1.016 -s 0 -d 3 -p cbr -e 1000 -c 0 -i 6 -a 0 -x {0.1 1073741824.0 2 ------- null}
h -t 1.016 -s 0 -d 3 -p cbr -e 1000 -c 0 -i 6 -a 0 -x {0.1 1073741824.0 -1 ------- null}
r -t 1.01808 -s 0 -d 2 -p cbr -e 1000 -c 0 -i 1 -a 0 -x {0.1 1073741824.0 1 ------- null}
+ -t 1.01808 -s 2 -d 0 -p prune -e 80 -c 30 -i 7 -a 30 -x {2.0 0.0 -1 ------- null}
- -t 1.01808 -s 2 -d 0 -p prune -e 80 -c 30 -i 7 -a 30 -x {2.0 0.0 -1 ------- null}
h -t 1.01808 -s 2 -d 0 -p prune -e 80 -c 30 -i 7 -a 30 -x {2.0 0.0 -1 ------- null}
r -t 1.01808 -s 0 -d 1 -p cbr -e 1000 -c 0 -i 1 -a 0 -x {0.1 1073741824.0 1 ------- null}
+ -t 1.01808 -s 1 -d 0 -p prune -e 80 -c 30 -i 8 -a 30 -x {1.0 0.0 -1 ------- null}
- -t 1.01808 -s 1 -d 0 -p prune -e 80 -c 30 -i 8 -a 30 -x {1.0 0.0 -1 ------- null}
h -t 1.01808 -s 1 -d 0 -p prune -e 80 -c 30 -i 8 -a 30 -x {1.0 0.0 -1 ------- null}
r -t 1.01808 -s 0 -d 4 -p cbr -e 1000 -c 0 -i 1 -a 0 -x {0.1 1073741824.0 1 ------- null}
+ -t 1.01808 -s 4 -d 0 -p prune -e 80 -c 30 -i 9 -a 30 -x {4.0 0.0 -1 ------- null}
- -t 1.01808 -s 4 -d 0 -p prune -e 80 -c 30 -i 9 -a 30 -x {4.0 0.0 -1 ------- null}
h -t 1.01808 -s 4 -d 0 -p prune -e 80 -c 30 -i 9 -a 30 -x {4.0 0.0 -1 ------- null}
r -t 1.01808 -s 0 -d 3 -p cbr -e 1000 -c 0 -i 1 -a 0 -x {0.1 1073741824.0 1 ------- null}
+ -t 1.01808 -s 3 -d 0 -p prune -e 80 -c 30 -i 10 -a 30 -x {3.0 0.0 -1 ------- null}
- -t 1.01808 -s 3 -d 0 -p prune -e 80 -c 30 -i 10 -a 30 -x {3.0 0.0 -1 ------- null}
h -t 1.01808 -s 3 -d 0 -p prune -e 80 -c 30 -i 10 -a 30 -x {3.0 0.0 -1 ------- null}
r -t 1.0200864 -s 2 -d 0 -p prune -e 80 -c 30 -i 2 -a 30 -x {2.0 0.0 -1 ------- null}
r -t 1.0200864 -s 1 -d 0 -p prune -e 80 -c 30 -i 3 -a 30 -x {1.0 0.0 -1 ------- null}
r -t 1.0200864 -s 4 -d 0 -p prune -e 80 -c 30 -i 4 -a 30 -x {4.0 0.0 -1 ------- null}
r -t 1.0200864 -s 3 -d 0 -p prune -e 80 -c 30 -i 5 -a 30 -x {3.0 0.0 -1 ------- null}
r -t 1.02608 -s 0 -d 2 -p cbr -e 1000 -c 0 -i 6 -a 0 -x {0.1 1073741824.0 2 ------- null}
+ -t 1.02608 -s 2 -d 0 -p prune -e 80 -c 30 -i 12 -a 30 -x {2.0 0.0 -1 ------- null}
- -t 1.02608 -s 2 -d 0 -p prune -e 80 -c 30 -i 12 -a 30 -x {2.0 0.0 -1 ------- null}
h -t 1.02608 -s 2 -d 0 -p prune -e 80 -c 30 -i 12 -a 30 -x {2.0 0.0 -1 ------- null}
r -t 1.02608 -s 0 -d 1 -p cbr -e 1000 -c 0 -i 6 -a 0 -x {0.1 1073741824.0 2 ------- null}
+ -t 1.02608 -s 1 -d 0 -p prune -e 80 -c 30 -i 13 -a 30 -x {1.0 0.0 -1 ------- null}
- -t 1.02608 -s 1 -d 0 -p prune -e 80 -c 30 -i 13 -a 30 -x {1.0 0.0 -1 ------- null}
h -t 1.02608 -s 1 -d 0 -p prune -e 80 -c 30 -i 13 -a 30 -x {1.0 0.0 -1 ------- null}
r -t 1.02608 -s 0 -d 4 -p cbr -e 1000 -c 0 -i 6 -a 0 -x {0.1 1073741824.0 2 ------- null}
+ -t 1.02608 -s 4 -d 0 -p prune -e 80 -c 30 -i 14 -a 30 -x {4.0 0.0 -1 ------- null}
- -t 1.02608 -s 4 -d 0 -p prune -e 80 -c 30 -i 14 -a 30 -x {4.0 0.0 -1 ------- null}
h -t 1.02608 -s 4 -d 0 -p prune -e 80 -c 30 -i 14 -a 30 -x {4.0 0.0 -1 ------- null}
r -t 1.02608 -s 0 -d 3 -p cbr -e 1000 -c 0 -i 6 -a 0 -x {0.1 1073741824.0 2 ------- null}
+ -t 1.02608 -s 3 -d 0 -p prune -e 80 -c 30 -i 15 -a 30 -x {3.0 0.0 -1 ------- null}
- -t 1.02608 -s 3 -d 0 -p prune -e 80 -c 30 -i 15 -a 30 -x {3.0 0.0 -1 ------- null}
h -t 1.02608 -s 3 -d 0 -p prune -e 80 -c 30 -i 15 -a 30 -x {3.0 0.0 -1 ------- null}
r -t 1.0280864 -s 2 -d 0 -p prune -e 80 -c 30 -i 7 -a 30 -x {2.0 0.0 -1 ------- null}
r -t 1.0280864 -s 1 -d 0 -p prune -e 80 -c 30 -i 8 -a 30 -x {1.0 0.0 -1 ------- null}
r -t 1.0280864 -s 4 -d 0 -p prune -e 80 -c 30 -i 9 -a 30 -x {4.0 0.0 -1 ------- null}
r -t 1.0280864 -s 3 -d 0 -p prune -e 80 -c 30 -i 10 -a 30 -x {3.0 0.0 -1 ------- null}
r -t 1.0360864 -s 2 -d 0 -p prune -e 80 -c 30 -i 12 -a 30 -x {2.0 0.0 -1 ------- null}
r -t 1.0360864 -s 1 -d 0 -p prune -e 80 -c 30 -i 13 -a 30 -x {1.0 0.0 -1 ------- null}
r -t 1.0360864 -s 4 -d 0 -p prune -e 80 -c 30 -i 14 -a 30 -x {4.0 0.0 -1 ------- null}
r -t 1.0360864 -s 3 -d 0 -p prune -e 80 -c 30 -i 15 -a 30 -x {3.0 0.0 -1 ------- null}
v -t 1.1 -e sim_annotation 1.1 1.1000000000000001 1 join-group 1073741824
+ -t 1.1 -s 1 -d 0 -p graft -e 80 -c 31 -i 25 -a 31 -x {1.0 0.0 -1 ------- null}
- -t 1.1 -s 1 -d 0 -p graft -e 80 -c 31 -i 25 -a 31 -x {1.0 0.0 -1 ------- null}
h -t 1.1 -s 1 -d 0 -p graft -e 80 -c 31 -i 25 -a 31 -x {1.0 0.0 -1 ------- null}
r -t 1.1100064 -s 1 -d 0 -p graft -e 80 -c 31 -i 25 -a 31 -x {1.0 0.0 -1 ------- null}
+ -t 1.112 -s 0 -d 1 -p cbr -e 1000 -c 0 -i 27 -a 0 -x {0.1 1073741824.0 14 ------- null}
- -t 1.112 -s 0 -d 1 -p cbr -e 1000 -c 0 -i 27 -a 0 -x {0.1 1073741824.0 14 ------- null}
h -t 1.112 -s 0 -d 1 -p cbr -e 1000 -c 0 -i 27 -a 0 -x {0.1 1073741824.0 -1 ------- null}
+ -t 1.12 -s 0 -d 1 -p cbr -e 1000 -c 0 -i 28 -a 0 -x {0.1 1073741824.0 15 ------- null}
- -t 1.12 -s 0 -d 1 -p cbr -e 1000 -c 0 -i 28 -a 0 -x {0.1 1073741824.0 15 ------- null}
h -t 1.12 -s 0 -d 1 -p cbr -e 1000 -c 0 -i 28 -a 0 -x {0.1 1073741824.0 -1 ------- null}
r -t 1.12208 -s 0 -d 1 -p cbr -e 1000 -c 0 -i 27 -a 0 -x {0.1 1073741824.0 14 ------- null}
+ -t 1.128 -s 0 -d 1 -p cbr -e 1000 -c 0 -i 29 -a 0 -x {0.1 1073741824.0 16 ------- null}
- -t 1.128 -s 0 -d 1 -p cbr -e 1000 -c 0 -i 29 -a 0 -x {0.1 1073741824.0 16 ------- null}
h -t 1.128 -s 0 -d 1 -p cbr -e 1000 -c 0 -i 29 -a 0 -x {0.1 1073741824.0 -1 ------- null}
r -t 1.13008 -s 0 -d 1 -p cbr -e 1000 -c 0 -i 28 -a 0 -x {0.1 1073741824.0 15 ------- null}
+ -t 1.136 -s 0 -d 1 -p cbr -e 1000 -c 0 -i 30 -a 0 -x {0.1 1073741824.0 17 ------- null}
- -t 1.136 -s 0 -d 1 -p cbr -e 1000 -c 0 -i 30 -a 0 -x {0.1 1073741824.0 17 ------- null}
h -t 1.136 -s 0 -d 1 -p cbr -e 1000 -c 0 -i 30 -a 0 -x {0.1 1073741824.0 -1 ------- null}
r -t 1.13808 -s 0 -d 1 -p cbr -e 1000 -c 0 -i 29 -a 0 -x {0.1 1073741824.0 16 ------- null}
+ -t 1.144 -s 0 -d 1 -p cbr -e 1000 -c 0 -i 31 -a 0 -x {0.1 1073741824.0 18 ------- null}
- -t 1.144 -s 0 -d 1 -p cbr -e 1000 -c 0 -i 31 -a 0 -x {0.1 1073741824.0 18 ------- null}
h -t 1.144 -s 0 -d 1 -p cbr -e 1000 -c 0 -i 31 -a 0 -x {0.1 1073741824.0 -1 ------- null}
r -t 1.14608 -s 0 -d 1 -p cbr -e 1000 -c 0 -i 30 -a 0 -x {0.1 1073741824.0 17 ------- null}
+ -t 1.152 -s 0 -d 1 -p cbr -e 1000 -c 0 -i 32 -a 0 -x {0.1 1073741824.0 19 ------- null}
- -t 1.152 -s 0 -d 1 -p cbr -e 1000 -c 0 -i 32 -a 0 -x {0.1 1073741824.0 19 ------- null}
h -t 1.152 -s 0 -d 1 -p cbr -e 1000 -c 0 -i 32 -a 0 -x {0.1 1073741824.0 -1 ------- null}
r -t 1.15408 -s 0 -d 1 -p cbr -e 1000 -c 0 -i 31 -a 0 -x {0.1 1073741824.0 18 ------- null}
+ -t 1.16 -s 0 -d 1 -p cbr -e 1000 -c 0 -i 33 -a 0 -x {0.1 1073741824.0 20 ------- null}
- -t 1.16 -s 0 -d 1 -p cbr -e 1000 -c 0 -i 33 -a 0 -x {0.1 1073741824.0 20 ------- null}
h -t 1.16 -s 0 -d 1 -p cbr -e 1000 -c 0 -i 33 -a 0 -x {0.1 1073741824.0 -1 ------- null}
r -t 1.16208 -s 0 -d 1 -p cbr -e 1000 -c 0 -i 32 -a 0 -x {0.1 1073741824.0 19 ------- null}
+ -t 1.168 -s 0 -d 1 -p cbr -e 1000 -c 0 -i 34 -a 0 -x {0.1 1073741824.0 21 ------- null}
- -t 1.168 -s 0 -d 1 -p cbr -e 1000 -c 0 -i 34 -a 0 -x {0.1 1073741824.0 21 ------- null}
h -t 1.168 -s 0 -d 1 -p cbr -e 1000 -c 0 -i 34 -a 0 -x {0.1 1073741824.0 -1 ------- null}
r -t 1.17008 -s 0 -d 1 -p cbr -e 1000 -c 0 -i 33 -a 0 -x {0.1 1073741824.0 20 ------- null}
+ -t 1.176 -s 0 -d 1 -p cbr -e 1000 -c 0 -i 35 -a 0 -x {0.1 1073741824.0 22 ------- null}
- -t 1.176 -s 0 -d 1 -p cbr -e 1000 -c 0 -i 35 -a 0 -x {0.1 1073741824.0 22 ------- null}
h -t 1.176 -s 0 -d 1 -p cbr -e 1000 -c 0 -i 35 -a 0 -x {0.1 1073741824.0 -1 ------- null}
r -t 1.17808 -s 0 -d 1 -p cbr -e 1000 -c 0 -i 34 -a 0 -x {0.1 1073741824.0 21 ------- null}
+ -t 1.184 -s 0 -d 1 -p cbr -e 1000 -c 0 -i 36 -a 0 -x {0.1 1073741824.0 23 ------- null}
- -t 1.184 -s 0 -d 1 -p cbr -e 1000 -c 0 -i 36 -a 0 -x {0.1 1073741824.0 23 ------- null}
h -t 1.184 -s 0 -d 1 -p cbr -e 1000 -c 0 -i 36 -a 0 -x {0.1 1073741824.0 -1 ------- null}
r -t 1.18608 -s 0 -d 1 -p cbr -e 1000 -c 0 -i 35 -a 0 -x {0.1 1073741824.0 22 ------- null}
+ -t 1.192 -s 0 -d 1 -p cbr -e 1000 -c 0 -i 37 -a 0 -x {0.1 1073741824.0 24 ------- null}
- -t 1.192 -s 0 -d 1 -p cbr -e 1000 -c 0 -i 37 -a 0 -x {0.1 1073741824.0 24 ------- null}
h -t 1.192 -s 0 -d 1 -p cbr -e 1000 -c 0 -i 37 -a 0 -x {0.1 1073741824.0 -1 ------- null}
r -t 1.19408 -s 0 -d 1 -p cbr -e 1000 -c 0 -i 36 -a 0 -x {0.1 1073741824.0 23 ------- null}
v -t 1.2 -e sim_annotation 1.2 1.2 2 join-group 1073741824
+ -t 1.2 -s 2 -d 0 -p graft -e 80 -c 31 -i 38 -a 31 -x {2.0 0.0 -1 ------- null}
- -t 1.2 -s 2 -d 0 -p graft -e 80 -c 31 -i 38 -a 31 -x {2.0 0.0 -1 ------- null}
h -t 1.2 -s 2 -d 0 -p graft -e 80 -c 31 -i 38 -a 31 -x {2.0 0.0 -1 ------- null}
+ -t 1.2 -s 0 -d 1 -p cbr -e 1000 -c 0 -i 39 -a 0 -x {0.1 1073741824.0 25 ------- null}
- -t 1.2 -s 0 -d 1 -p cbr -e 1000 -c 0 -i 39 -a 0 -x {0.1 1073741824.0 25 ------- null}
h -t 1.2 -s 0 -d 1 -p cbr -e 1000 -c 0 -i 39 -a 0 -x {0.1 1073741824.0 -1 ------- null}
r -t 1.20208 -s 0 -d 1 -p cbr -e 1000 -c 0 -i 37 -a 0 -x {0.1 1073741824.0 24 ------- null}
+ -t 1.208 -s 0 -d 1 -p cbr -e 1000 -c 0 -i 40 -a 0 -x {0.1 1073741824.0 26 ------- null}
- -t 1.208 -s 0 -d 1 -p cbr -e 1000 -c 0 -i 40 -a 0 -x {0.1 1073741824.0 26 ------- null}
h -t 1.208 -s 0 -d 1 -p cbr -e 1000 -c 0 -i 40 -a 0 -x {0.1 1073741824.0 -1 ------- null}
r -t 1.2100064 -s 2 -d 0 -p graft -e 80 -c 31 -i 38 -a 31 -x {2.0 0.0 -1 ------- null}
r -t 1.21008 -s 0 -d 1 -p cbr -e 1000 -c 0 -i 39 -a 0 -x {0.1 1073741824.0 25 ------- null}
+ -t 1.216 -s 0 -d 1 -p cbr -e 1000 -c 0 -i 41 -a 0 -x {0.1 1073741824.0 27 ------- null}
- -t 1.216 -s 0 -d 1 -p cbr -e 1000 -c 0 -i 41 -a 0 -x {0.1 1073741824.0 27 ------- null}
h -t 1.216 -s 0 -d 1 -p cbr -e 1000 -c 0 -i 41 -a 0 -x {0.1 1073741824.0 -1 ------- null}
+ -t 1.216 -s 0 -d 2 -p cbr -e 1000 -c 0 -i 41 -a 0 -x {0.1 1073741824.0 27 ------- null}
- -t 1.216 -s 0 -d 2 -p cbr -e 1000 -c 0 -i 41 -a 0 -x {0.1 1073741824.0 27 ------- null}
h -t 1.216 -s 0 -d 2 -p cbr -e 1000 -c 0 -i 41 -a 0 -x {0.1 1073741824.0 -1 ------- null}
r -t 1.21808 -s 0 -d 1 -p cbr -e 1000 -c 0 -i 40 -a 0 -x {0.1 1073741824.0 26 ------- null}
+ -t 1.224 -s 0 -d 1 -p cbr -e 1000 -c 0 -i 42 -a 0 -x {0.1 1073741824.0 28 ------- null}
- -t 1.224 -s 0 -d 1 -p cbr -e 1000 -c 0 -i 42 -a 0 -x {0.1 1073741824.0 28 ------- null}
h -t 1.224 -s 0 -d 1 -p cbr -e 1000 -c 0 -i 42 -a 0 -x {0.1 1073741824.0 -1 ------- null}
+ -t 1.224 -s 0 -d 2 -p cbr -e 1000 -c 0 -i 42 -a 0 -x {0.1 1073741824.0 28 ------- null}
- -t 1.224 -s 0 -d 2 -p cbr -e 1000 -c 0 -i 42 -a 0 -x {0.1 1073741824.0 28 ------- null}
h -t 1.224 -s 0 -d 2 -p cbr -e 1000 -c 0 -i 42 -a 0 -x {0.1 1073741824.0 -1 ------- null}
r -t 1.22608 -s 0 -d 1 -p cbr -e 1000 -c 0 -i 41 -a 0 -x {0.1 1073741824.0 27 ------- null}
r -t 1.22608 -s 0 -d 2 -p cbr -e 1000 -c 0 -i 41 -a 0 -x {0.1 1073741824.0 27 ------- null}
+ -t 1.232 -s 0 -d 1 -p cbr -e 1000 -c 0 -i 43 -a 0 -x {0.1 1073741824.0 29 ------- null}
- -t 1.232 -s 0 -d 1 -p cbr -e 1000 -c 0 -i 43 -a 0 -x {0.1 1073741824.0 29 ------- null}
h -t 1.232 -s 0 -d 1 -p cbr -e 1000 -c 0 -i 43 -a 0 -x {0.1 1073741824.0 -1 ------- null}
+ -t 1.232 -s 0 -d 2 -p cbr -e 1000 -c 0 -i 43 -a 0 -x {0.1 1073741824.0 29 ------- null}
- -t 1.232 -s 0 -d 2 -p cbr -e 1000 -c 0 -i 43 -a 0 -x {0.1 1073741824.0 29 ------- null}
h -t 1.232 -s 0 -d 2 -p cbr -e 1000 -c 0 -i 43 -a 0 -x {0.1 1073741824.0 -1 ------- null}
r -t 1.23408 -s 0 -d 1 -p cbr -e 1000 -c 0 -i 42 -a 0 -x {0.1 1073741824.0 28 ------- null}
r -t 1.23408 -s 0 -d 2 -p cbr -e 1000 -c 0 -i 42 -a 0 -x {0.1 1073741824.0 28 ------- null}
+ -t 1.24 -s 0 -d 1 -p cbr -e 1000 -c 0 -i 44 -a 0 -x {0.1 1073741824.0 30 ------- null}
- -t 1.24 -s 0 -d 1 -p cbr -e 1000 -c 0 -i 44 -a 0 -x {0.1 1073741824.0 30 ------- null}
h -t 1.24 -s 0 -d 1 -p cbr -e 1000 -c 0 -i 44 -a 0 -x {0.1 1073741824.0 -1 ------- null}
+ -t 1.24 -s 0 -d 2 -p cbr -e 1000 -c 0 -i 44 -a 0 -x {0.1 1073741824.0 30 ------- null}
- -t 1.24 -s 0 -d 2 -p cbr -e 1000 -c 0 -i 44 -a 0 -x {0.1 1073741824.0 30 ------- null}
h -t 1.24 -s 0 -d 2 -p cbr -e 1000 -c 0 -i 44 -a 0 -x {0.1 1073741824.0 -1 ------- null}
r -t 1.24208 -s 0 -d 1 -p cbr -e 1000 -c 0 -i 43 -a 0 -x {0.1 1073741824.0 29 ------- null}
r -t 1.24208 -s 0 -d 2 -p cbr -e 1000 -c 0 -i 43 -a 0 -x {0.1 1073741824.0 29 ------- null}
+ -t 1.248 -s 0 -d 1 -p cbr -e 1000 -c 0 -i 45 -a 0 -x {0.1 1073741824.0 31 ------- null}
- -t 1.248 -s 0 -d 1 -p cbr -e 1000 -c 0 -i 45 -a 0 -x {0.1 1073741824.0 31 ------- null}
h -t 1.248 -s 0 -d 1 -p cbr -e 1000 -c 0 -i 45 -a 0 -x {0.1 1073741824.0 -1 ------- null}
+ -t 1.248 -s 0 -d 2 -p cbr -e 1000 -c 0 -i 45 -a 0 -x {0.1 1073741824.0 31 ------- null}
- -t 1.248 -s 0 -d 2 -p cbr -e 1000 -c 0 -i 45 -a 0 -x {0.1 1073741824.0 31 ------- null}
h -t 1.248 -s 0 -d 2 -p cbr -e 1000 -c 0 -i 45 -a 0 -x {0.1 1073741824.0 -1 ------- null}
r -t 1.25008 -s 0 -d 1 -p cbr -e 1000 -c 0 -i 44 -a 0 -x {0.1 1073741824.0 30 ------- null}
r -t 1.25008 -s 0 -d 2 -p cbr -e 1000 -c 0 -i 44 -a 0 -x {0.1 1073741824.0 30 ------- null}
+ -t 1.256 -s 0 -d 1 -p cbr -e 1000 -c 0 -i 46 -a 0 -x {0.1 1073741824.0 32 ------- null}
- -t 1.256 -s 0 -d 1 -p cbr -e 1000 -c 0 -i 46 -a 0 -x {0.1 1073741824.0 32 ------- null}
h -t 1.256 -s 0 -d 1 -p cbr -e 1000 -c 0 -i 46 -a 0 -x {0.1 1073741824.0 -1 ------- null}
+ -t 1.256 -s 0 -d 2 -p cbr -e 1000 -c 0 -i 46 -a 0 -x {0.1 1073741824.0 32 ------- null}
- -t 1.256 -s 0 -d 2 -p cbr -e 1000 -c 0 -i 46 -a 0 -x {0.1 1073741824.0 32 ------- null}
h -t 1.256 -s 0 -d 2 -p cbr -e 1000 -c 0 -i 46 -a 0 -x {0.1 1073741824.0 -1 ------- null}
r -t 1.25808 -s 0 -d 1 -p cbr -e 1000 -c 0 -i 45 -a 0 -x {0.1 1073741824.0 31 ------- null}
r -t 1.25808 -s 0 -d 2 -p cbr -e 1000 -c 0 -i 45 -a 0 -x {0.1 1073741824.0 31 ------- null}
+ -t 1.264 -s 0 -d 1 -p cbr -e 1000 -c 0 -i 47 -a 0 -x {0.1 1073741824.0 33 ------- null}
- -t 1.264 -s 0 -d 1 -p cbr -e 1000 -c 0 -i 47 -a 0 -x {0.1 1073741824.0 33 ------- null}
h -t 1.264 -s 0 -d 1 -p cbr -e 1000 -c 0 -i 47 -a 0 -x {0.1 1073741824.0 -1 ------- null}
+ -t 1.264 -s 0 -d 2 -p cbr -e 1000 -c 0 -i 47 -a 0 -x {0.1 1073741824.0 33 ------- null}
- -t 1.264 -s 0 -d 2 -p cbr -e 1000 -c 0 -i 47 -a 0 -x {0.1 1073741824.0 33 ------- null}
h -t 1.264 -s 0 -d 2 -p cbr -e 1000 -c 0 -i 47 -a 0 -x {0.1 1073741824.0 -1 ------- null}
r -t 1.26608 -s 0 -d 1 -p cbr -e 1000 -c 0 -i 46 -a 0 -x {0.1 1073741824.0 32 ------- null}
r -t 1.26608 -s 0 -d 2 -p cbr -e 1000 -c 0 -i 46 -a 0 -x {0.1 1073741824.0 32 ------- null}
+ -t 1.272 -s 0 -d 1 -p cbr -e 1000 -c 0 -i 48 -a 0 -x {0.1 1073741824.0 34 ------- null}
- -t 1.272 -s 0 -d 1 -p cbr -e 1000 -c 0 -i 48 -a 0 -x {0.1 1073741824.0 34 ------- null}
h -t 1.272 -s 0 -d 1 -p cbr -e 1000 -c 0 -i 48 -a 0 -x {0.1 1073741824.0 -1 ------- null}
+ -t 1.272 -s 0 -d 2 -p cbr -e 1000 -c 0 -i 48 -a 0 -x {0.1 1073741824.0 34 ------- null}
- -t 1.272 -s 0 -d 2 -p cbr -e 1000 -c 0 -i 48 -a 0 -x {0.1 1073741824.0 34 ------- null}
h -t 1.272 -s 0 -d 2 -p cbr -e 1000 -c 0 -i 48 -a 0 -x {0.1 1073741824.0 -1 ------- null}
r -t 1.27408 -s 0 -d 1 -p cbr -e 1000 -c 0 -i 47 -a 0 -x {0.1 1073741824.0 33 ------- null}
r -t 1.27408 -s 0 -d 2 -p cbr -e 1000 -c 0 -i 47 -a 0 -x {0.1 1073741824.0 33 ------- null}
+ -t 1.28 -s 0 -d 1 -p cbr -e 1000 -c 0 -i 49 -a 0 -x {0.1 1073741824.0 35 ------- null}
- -t 1.28 -s 0 -d 1 -p cbr -e 1000 -c 0 -i 49 -a 0 -x {0.1 1073741824.0 35 ------- null}
h -t 1.28 -s 0 -d 1 -p cbr -e 1000 -c 0 -i 49 -a 0 -x {0.1 1073741824.0 -1 ------- null}
+ -t 1.28 -s 0 -d 2 -p cbr -e 1000 -c 0 -i 49 -a 0 -x {0.1 1073741824.0 35 ------- null}
- -t 1.28 -s 0 -d 2 -p cbr -e 1000 -c 0 -i 49 -a 0 -x {0.1 1073741824.0 35 ------- null}
h -t 1.28 -s 0 -d 2 -p cbr -e 1000 -c 0 -i 49 -a 0 -x {0.1 1073741824.0 -1 ------- null}
r -t 1.28208 -s 0 -d 1 -p cbr -e 1000 -c 0 -i 48 -a 0 -x {0.1 1073741824.0 34 ------- null}
r -t 1.28208 -s 0 -d 2 -p cbr -e 1000 -c 0 -i 48 -a 0 -x {0.1 1073741824.0 34 ------- null}
+ -t 1.288 -s 0 -d 1 -p cbr -e 1000 -c 0 -i 50 -a 0 -x {0.1 1073741824.0 36 ------- null}
- -t 1.288 -s 0 -d 1 -p cbr -e 1000 -c 0 -i 50 -a 0 -x {0.1 1073741824.0 36 ------- null}
h -t 1.288 -s 0 -d 1 -p cbr -e 1000 -c 0 -i 50 -a 0 -x {0.1 1073741824.0 -1 ------- null}
+ -t 1.288 -s 0 -d 2 -p cbr -e 1000 -c 0 -i 50 -a 0 -x {0.1 1073741824.0 36 ------- null}
- -t 1.288 -s 0 -d 2 -p cbr -e 1000 -c 0 -i 50 -a 0 -x {0.1 1073741824.0 36 ------- null}
h -t 1.288 -s 0 -d 2 -p cbr -e 1000 -c 0 -i 50 -a 0 -x {0.1 1073741824.0 -1 ------- null}
r -t 1.29008 -s 0 -d 1 -p cbr -e 1000 -c 0 -i 49 -a 0 -x {0.1 1073741824.0 35 ------- null}
r -t 1.29008 -s 0 -d 2 -p cbr -e 1000 -c 0 -i 49 -a 0 -x {0.1 1073741824.0 35 ------- null}
+ -t 1.296 -s 0 -d 1 -p cbr -e 1000 -c 0 -i 51 -a 0 -x {0.1 1073741824.0 37 ------- null}
- -t 1.296 -s 0 -d 1 -p cbr -e 1000 -c 0 -i 51 -a 0 -x {0.1 1073741824.0 37 ------- null}
h -t 1.296 -s 0 -d 1 -p cbr -e 1000 -c 0 -i 51 -a 0 -x {0.1 1073741824.0 -1 ------- null}
+ -t 1.296 -s 0 -d 2 -p cbr -e 1000 -c 0 -i 51 -a 0 -x {0.1 1073741824.0 37 ------- null}
- -t 1.296 -s 0 -d 2 -p cbr -e 1000 -c 0 -i 51 -a 0 -x {0.1 1073741824.0 37 ------- null}
h -t 1.296 -s 0 -d 2 -p cbr -e 1000 -c 0 -i 51 -a 0 -x {0.1 1073741824.0 -1 ------- null}
r -t 1.29808 -s 0 -d 1 -p cbr -e 1000 -c 0 -i 50 -a 0 -x {0.1 1073741824.0 36 ------- null}
r -t 1.29808 -s 0 -d 2 -p cbr -e 1000 -c 0 -i 50 -a 0 -x {0.1 1073741824.0 36 ------- null}
v -t 1.3 -e sim_annotation 1.3 1.3 3 join-group 1073741824
+ -t 1.3 -s 3 -d 0 -p graft -e 80 -c 31 -i 52 -a 31 -x {3.0 0.0 -1 ------- null}
- -t 1.3 -s 3 -d 0 -p graft -e 80 -c 31 -i 52 -a 31 -x {3.0 0.0 -1 ------- null}
h -t 1.3 -s 3 -d 0 -p graft -e 80 -c 31 -i 52 -a 31 -x {3.0 0.0 -1 ------- null}
+ -t 1.304 -s 0 -d 1 -p cbr -e 1000 -c 0 -i 53 -a 0 -x {0.1 1073741824.0 38 ------- null}
- -t 1.304 -s 0 -d 1 -p cbr -e 1000 -c 0 -i 53 -a 0 -x {0.1 1073741824.0 38 ------- null}
h -t 1.304 -s 0 -d 1 -p cbr -e 1000 -c 0 -i 53 -a 0 -x {0.1 1073741824.0 -1 ------- null}
+ -t 1.304 -s 0 -d 2 -p cbr -e 1000 -c 0 -i 53 -a 0 -x {0.1 1073741824.0 38 ------- null}
- -t 1.304 -s 0 -d 2 -p cbr -e 1000 -c 0 -i 53 -a 0 -x {0.1 1073741824.0 38 ------- null}
h -t 1.304 -s 0 -d 2 -p cbr -e 1000 -c 0 -i 53 -a 0 -x {0.1 1073741824.0 -1 ------- null}
r -t 1.30608 -s 0 -d 1 -p cbr -e 1000 -c 0 -i 51 -a 0 -x {0.1 1073741824.0 37 ------- null}
r -t 1.30608 -s 0 -d 2 -p cbr -e 1000 -c 0 -i 51 -a 0 -x {0.1 1073741824.0 37 ------- null}
r -t 1.3100064 -s 3 -d 0 -p graft -e 80 -c 31 -i 52 -a 31 -x {3.0 0.0 -1 ------- null}
+ -t 1.312 -s 0 -d 1 -p cbr -e 1000 -c 0 -i 54 -a 0 -x {0.1 1073741824.0 39 ------- null}
- -t 1.312 -s 0 -d 1 -p cbr -e 1000 -c 0 -i 54 -a 0 -x {0.1 1073741824.0 39 ------- null}
h -t 1.312 -s 0 -d 1 -p cbr -e 1000 -c 0 -i 54 -a 0 -x {0.1 1073741824.0 -1 ------- null}
+ -t 1.312 -s 0 -d 2 -p cbr -e 1000 -c 0 -i 54 -a 0 -x {0.1 1073741824.0 39 ------- null}
- -t 1.312 -s 0 -d 2 -p cbr -e 1000 -c 0 -i 54 -a 0 -x {0.1 1073741824.0 39 ------- null}
h -t 1.312 -s 0 -d 2 -p cbr -e 1000 -c 0 -i 54 -a 0 -x {0.1 1073741824.0 -1 ------- null}
+ -t 1.312 -s 0 -d 3 -p cbr -e 1000 -c 0 -i 54 -a 0 -x {0.1 1073741824.0 39 ------- null}
- -t 1.312 -s 0 -d 3 -p cbr -e 1000 -c 0 -i 54 -a 0 -x {0.1 1073741824.0 39 ------- null}
h -t 1.312 -s 0 -d 3 -p cbr -e 1000 -c 0 -i 54 -a 0 -x {0.1 1073741824.0 -1 ------- null}
r -t 1.31408 -s 0 -d 1 -p cbr -e 1000 -c 0 -i 53 -a 0 -x {0.1 1073741824.0 38 ------- null}
r -t 1.31408 -s 0 -d 2 -p cbr -e 1000 -c 0 -i 53 -a 0 -x {0.1 1073741824.0 38 ------- null}
+ -t 1.32 -s 0 -d 1 -p cbr -e 1000 -c 0 -i 55 -a 0 -x {0.1 1073741824.0 40 ------- null}
- -t 1.32 -s 0 -d 1 -p cbr -e 1000 -c 0 -i 55 -a 0 -x {0.1 1073741824.0 40 ------- null}
h -t 1.32 -s 0 -d 1 -p cbr -e 1000 -c 0 -i 55 -a 0 -x {0.1 1073741824.0 -1 ------- null}
+ -t 1.32 -s 0 -d 2 -p cbr -e 1000 -c 0 -i 55 -a 0 -x {0.1 1073741824.0 40 ------- null}
- -t 1.32 -s 0 -d 2 -p cbr -e 1000 -c 0 -i 55 -a 0 -x {0.1 1073741824.0 40 ------- null}
h -t 1.32 -s 0 -d 2 -p cbr -e 1000 -c 0 -i 55 -a 0 -x {0.1 1073741824.0 -1 ------- null}
+ -t 1.32 -s 0 -d 3 -p cbr -e 1000 -c 0 -i 55 -a 0 -x {0.1 1073741824.0 40 ------- null}
- -t 1.32 -s 0 -d 3 -p cbr -e 1000 -c 0 -i 55 -a 0 -x {0.1 1073741824.0 40 ------- null}
h -t 1.32 -s 0 -d 3 -p cbr -e 1000 -c 0 -i 55 -a 0 -x {0.1 1073741824.0 -1 ------- null}
r -t 1.32208 -s 0 -d 1 -p cbr -e 1000 -c 0 -i 54 -a 0 -x {0.1 1073741824.0 39 ------- null}
r -t 1.32208 -s 0 -d 2 -p cbr -e 1000 -c 0 -i 54 -a 0 -x {0.1 1073741824.0 39 ------- null}
r -t 1.32208 -s 0 -d 3 -p cbr -e 1000 -c 0 -i 54 -a 0 -x {0.1 1073741824.0 39 ------- null}
+ -t 1.328 -s 0 -d 1 -p cbr -e 1000 -c 0 -i 56 -a 0 -x {0.1 1073741824.0 41 ------- null}
- -t 1.328 -s 0 -d 1 -p cbr -e 1000 -c 0 -i 56 -a 0 -x {0.1 1073741824.0 41 ------- null}
h -t 1.328 -s 0 -d 1 -p cbr -e 1000 -c 0 -i 56 -a 0 -x {0.1 1073741824.0 -1 ------- null}
+ -t 1.328 -s 0 -d 2 -p cbr -e 1000 -c 0 -i 56 -a 0 -x {0.1 1073741824.0 41 ------- null}
- -t 1.328 -s 0 -d 2 -p cbr -e 1000 -c 0 -i 56 -a 0 -x {0.1 1073741824.0 41 ------- null}
h -t 1.328 -s 0 -d 2 -p cbr -e 1000 -c 0 -i 56 -a 0 -x {0.1 1073741824.0 -1 ------- null}
+ -t 1.328 -s 0 -d 3 -p cbr -e 1000 -c 0 -i 56 -a 0 -x {0.1 1073741824.0 41 ------- null}
- -t 1.328 -s 0 -d 3 -p cbr -e 1000 -c 0 -i 56 -a 0 -x {0.1 1073741824.0 41 ------- null}
h -t 1.328 -s 0 -d 3 -p cbr -e 1000 -c 0 -i 56 -a 0 -x {0.1 1073741824.0 -1 ------- null}
r -t 1.33008 -s 0 -d 1 -p cbr -e 1000 -c 0 -i 55 -a 0 -x {0.1 1073741824.0 40 ------- null}
r -t 1.33008 -s 0 -d 2 -p cbr -e 1000 -c 0 -i 55 -a 0 -x {0.1 1073741824.0 40 ------- null}
r -t 1.33008 -s 0 -d 3 -p cbr -e 1000 -c 0 -i 55 -a 0 -x {0.1 1073741824.0 40 ------- null}
+ -t 1.336 -s 0 -d 1 -p cbr -e 1000 -c 0 -i 57 -a 0 -x {0.1 1073741824.0 42 ------- null}
- -t 1.336 -s 0 -d 1 -p cbr -e 1000 -c 0 -i 57 -a 0 -x {0.1 1073741824.0 42 ------- null}
h -t 1.336 -s 0 -d 1 -p cbr -e 1000 -c 0 -i 57 -a 0 -x {0.1 1073741824.0 -1 ------- null}
+ -t 1.336 -s 0 -d 2 -p cbr -e 1000 -c 0 -i 57 -a 0 -x {0.1 1073741824.0 42 ------- null}
- -t 1.336 -s 0 -d 2 -p cbr -e 1000 -c 0 -i 57 -a 0 -x {0.1 1073741824.0 42 ------- null}
h -t 1.336 -s 0 -d 2 -p cbr -e 1000 -c 0 -i 57 -a 0 -x {0.1 1073741824.0 -1 ------- null}
+ -t 1.336 -s 0 -d 3 -p cbr -e 1000 -c 0 -i 57 -a 0 -x {0.1 1073741824.0 42 ------- null}
- -t 1.336 -s 0 -d 3 -p cbr -e 1000 -c 0 -i 57 -a 0 -x {0.1 1073741824.0 42 ------- null}
h -t 1.336 -s 0 -d 3 -p cbr -e 1000 -c 0 -i 57 -a 0 -x {0.1 1073741824.0 -1 ------- null}
r -t 1.33808 -s 0 -d 1 -p cbr -e 1000 -c 0 -i 56 -a 0 -x {0.1 1073741824.0 41 ------- null}
r -t 1.33808 -s 0 -d 2 -p cbr -e 1000 -c 0 -i 56 -a 0 -x {0.1 1073741824.0 41 ------- null}
r -t 1.33808 -s 0 -d 3 -p cbr -e 1000 -c 0 -i 56 -a 0 -x {0.1 1073741824.0 41 ------- null}
+ -t 1.344 -s 0 -d 1 -p cbr -e 1000 -c 0 -i 58 -a 0 -x {0.1 1073741824.0 43 ------- null}
- -t 1.344 -s 0 -d 1 -p cbr -e 1000 -c 0 -i 58 -a 0 -x {0.1 1073741824.0 43 ------- null}
h -t 1.344 -s 0 -d 1 -p cbr -e 1000 -c 0 -i 58 -a 0 -x {0.1 1073741824.0 -1 ------- null}
+ -t 1.344 -s 0 -d 2 -p cbr -e 1000 -c 0 -i 58 -a 0 -x {0.1 1073741824.0 43 ------- null}
- -t 1.344 -s 0 -d 2 -p cbr -e 1000 -c 0 -i 58 -a 0 -x {0.1 1073741824.0 43 ------- null}
h -t 1.344 -s 0 -d 2 -p cbr -e 1000 -c 0 -i 58 -a 0 -x {0.1 1073741824.0 -1 ------- null}
+ -t 1.344 -s 0 -d 3 -p cbr -e 1000 -c 0 -i 58 -a 0 -x {0.1 1073741824.0 43 ------- null}
- -t 1.344 -s 0 -d 3 -p cbr -e 1000 -c 0 -i 58 -a 0 -x {0.1 1073741824.0 43 ------- null}
h -t 1.344 -s 0 -d 3 -p cbr -e 1000 -c 0 -i 58 -a 0 -x {0.1 1073741824.0 -1 ------- null}
r -t 1.34608 -s 0 -d 1 -p cbr -e 1000 -c 0 -i 57 -a 0 -x {0.1 1073741824.0 42 ------- null}
r -t 1.34608 -s 0 -d 2 -p cbr -e 1000 -c 0 -i 57 -a 0 -x {0.1 1073741824.0 42 ------- null}
r -t 1.34608 -s 0 -d 3 -p cbr -e 1000 -c 0 -i 57 -a 0 -x {0.1 1073741824.0 42 ------- null}
+ -t 1.352 -s 0 -d 1 -p cbr -e 1000 -c 0 -i 59 -a 0 -x {0.1 1073741824.0 44 ------- null}
- -t 1.352 -s 0 -d 1 -p cbr -e 1000 -c 0 -i 59 -a 0 -x {0.1 1073741824.0 44 ------- null}
h -t 1.352 -s 0 -d 1 -p cbr -e 1000 -c 0 -i 59 -a 0 -x {0.1 1073741824.0 -1 ------- null}
+ -t 1.352 -s 0 -d 2 -p cbr -e 1000 -c 0 -i 59 -a 0 -x {0.1 1073741824.0 44 ------- null}
- -t 1.352 -s 0 -d 2 -p cbr -e 1000 -c 0 -i 59 -a 0 -x {0.1 1073741824.0 44 ------- null}
h -t 1.352 -s 0 -d 2 -p cbr -e 1000 -c 0 -i 59 -a 0 -x {0.1 1073741824.0 -1 ------- null}
+ -t 1.352 -s 0 -d 3 -p cbr -e 1000 -c 0 -i 59 -a 0 -x {0.1 1073741824.0 44 ------- null}
- -t 1.352 -s 0 -d 3 -p cbr -e 1000 -c 0 -i 59 -a 0 -x {0.1 1073741824.0 44 ------- null}
h -t 1.352 -s 0 -d 3 -p cbr -e 1000 -c 0 -i 59 -a 0 -x {0.1 1073741824.0 -1 ------- null}
r -t 1.35408 -s 0 -d 1 -p cbr -e 1000 -c 0 -i 58 -a 0 -x {0.1 1073741824.0 43 ------- null}
r -t 1.35408 -s 0 -d 2 -p cbr -e 1000 -c 0 -i 58 -a 0 -x {0.1 1073741824.0 43 ------- null}
r -t 1.35408 -s 0 -d 3 -p cbr -e 1000 -c 0 -i 58 -a 0 -x {0.1 1073741824.0 43 ------- null}
+ -t 1.36 -s 0 -d 1 -p cbr -e 1000 -c 0 -i 60 -a 0 -x {0.1 1073741824.0 45 ------- null}
- -t 1.36 -s 0 -d 1 -p cbr -e 1000 -c 0 -i 60 -a 0 -x {0.1 1073741824.0 45 ------- null}
h -t 1.36 -s 0 -d 1 -p cbr -e 1000 -c 0 -i 60 -a 0 -x {0.1 1073741824.0 -1 ------- null}