n -t 0 -s 0 -S DLABEL -l "src1" -L ""
n -t 0 -s 2 -S DLABEL -l "src2" -L ""
n -t 0 -s 3 -S DLABEL -l "dest2" -L ""
n -t 0 -s 5 -S DLABEL -l "dest1" -L ""
V -t * -v 1.0a5 -a 0
A -t * -n 1 -p 0 -o 0x7fffffff -c 30 -a 1
A -t * -h 1 -m 1073741823 -s 0
n -t * -a 4 -s 4 -S UP -v circle -c black -i black
n -t * -a 0 -s 0 -S UP -v circle -c magenta -i magenta
n -t * -a 5 -s 5 -S UP -v circle -c blue -i blue
n -t * -a 1 -s 1 -S UP -v circle -c black -i black
n -t * -a 2 -s 2 -S UP -v circle -c magenta -i magenta
n -t * -a 3 -s 3 -S UP -v circle -c blue -i blue
l -t * -s 2 -d 0 -S UP -r 100000 -D 0.01 -c black -o left-up
l -t * -s 1 -d 2 -S UP -r 100000000 -D 0.01 -c black -o right-up
l -t * -s 3 -d 2 -S UP -r 100000000 -D 0.01 -c black -o left
X -t * -n 6 -r 1Mb -D 40ms -o left
L -t * -s 6 -d 3 -o up
L -t * -s 6 -d 4 -o down
L -t * -s 6 -d 5 -o up
+ -t 1 -s 0 -d 2 -p tcp -e 40 -c 0 -i 0 -a 0 -x {0.0 5.0 0 ------- null}
- -t 1 -s 0 -d 2 -p tcp -e 40 -c 0 -i 0 -a 0 -x {0.0 5.0 0 ------- null}
h -t 1 -s 0 -d 2 -p tcp -e 40 -c 0 -i 0 -a 0 -x {0.0 5.0 -1 ------- null}
+ -t 1 -s 2 -d 3 -p tcp -e 40 -c 0 -i 1 -a 0 -x {2.0 3.0 0 ------- null}
- -t 1 -s 2 -d 3 -p tcp -e 40 -c 0 -i 1 -a 0 -x {2.0 3.0 0 ------- null}
h -t 1 -s 2 -d 3 -p tcp -e 40 -c 0 -i 1 -a 0 -x {2.0 3.0 -1 ------- null}
r -t 1.0100032 -s 2 -d 3 -p tcp -e 40 -c 0 -i 1 -a 0 -x {2.0 3.0 0 ------- null}
+ -t 1.0100032 -s 3 -d 2 -p ack -e 40 -c 0 -i 2 -a 0 -x {3.0 2.0 0 ------- null}
- -t 1.0100032 -s 3 -d 2 -p ack -e 40 -c 0 -i 2 -a 0 -x {3.0 2.0 0 ------- null}
h -t 1.0100032 -s 3 -d 2 -p ack -e 40 -c 0 -i 2 -a 0 -x {3.0 2.0 -1 ------- null}
r -t 1.0132 -s 0 -d 2 -p tcp -e 40 -c 0 -i 0 -a 0 -x {0.0 5.0 0 ------- null}
+ -t 1.0132 -s 2 -d 3 -p tcp -e 40 -c 0 -i 0 -a 0 -x {0.0 5.0 0 ------- null}
- -t 1.0132 -s 2 -d 3 -p tcp -e 40 -c 0 -i 0 -a 0 -x {0.0 5.0 0 ------- null}
h -t 1.0132 -s 2 -d 3 -p tcp -e 40 -c 0 -i 0 -a 0 -x {0.0 5.0 -1 ------- null}
r -t 1.0200064 -s 3 -d 2 -p ack -e 40 -c 0 -i 2 -a 0 -x {3.0 2.0 0 ------- null}
+ -t 1.0200064 -s 2 -d 3 -p tcp -e 1040 -c 0 -i 3 -a 0 -x {2.0 3.0 1 ------- null}
- -t 1.0200064 -s 2 -d 3 -p tcp -e 1040 -c 0 -i 3 -a 0 -x {2.0 3.0 1 ------- null}
h -t 1.0200064 -s 2 -d 3 -p tcp -e 1040 -c 0 -i 3 -a 0 -x {2.0 3.0 -1 ------- null}
+ -t 1.0200064 -s 2 -d 3 -p tcp -e 1040 -c 0 -i 4 -a 0 -x {2.0 3.0 2 ------- null}
- -t 1.0200896 -s 2 -d 3 -p tcp -e 1040 -c 0 -i 4 -a 0 -x {2.0 3.0 2 ------- null}
h -t 1.0200896 -s 2 -d 3 -p tcp -e 1040 -c 0 -i 4 -a 0 -x {2.0 3.0 -1 ------- null}
r -t 1.0232032 -s 2 -d 3 -p tcp -e 40 -c 0 -i 0 -a 0 -x {0.0 5.0 0 ------- null}
h -t 1.0232032 -s 3 -d 6 -p tcp -e 40 -c 0 -i 0 -a 0 -x {0.0 5.0 0 ------- null}
r -t 1.0300896 -s 2 -d 3 -p tcp -e 1040 -c 0 -i 3 -a 0 -x {2.0 3.0 1 ------- null}
+ -t 1.0300896 -s 3 -d 2 -p ack -e 40 -c 0 -i 5 -a 0 -x {3.0 2.0 1 ------- null}
- -t 1.0300896 -s 3 -d 2 -p ack -e 40 -c 0 -i 5 -a 0 -x {3.0 2.0 1 ------- null}
h -t 1.0300896 -s 3 -d 2 -p ack -e 40 -c 0 -i 5 -a 0 -x {3.0 2.0 -1 ------- null}
r -t 1.0301728 -s 2 -d 3 -p tcp -e 1040 -c 0 -i 4 -a 0 -x {2.0 3.0 2 ------- null}
+ -t 1.0301728 -s 3 -d 2 -p ack -e 40 -c 0 -i 6 -a 0 -x {3.0 2.0 2 ------- null}
- -t 1.0301728 -s 3 -d 2 -p ack -e 40 -c 0 -i 6 -a 0 -x {3.0 2.0 2 ------- null}
h -t 1.0301728 -s 3 -d 2 -p ack -e 40 -c 0 -i 6 -a 0 -x {3.0 2.0 -1 ------- null}
r -t 1.0400928 -s 3 -d 2 -p ack -e 40 -c 0 -i 5 -a 0 -x {3.0 2.0 1 ------- null}
+ -t 1.0400928 -s 2 -d 3 -p tcp -e 1040 -c 0 -i 7 -a 0 -x {2.0 3.0 3 ------- null}
- -t 1.0400928 -s 2 -d 3 -p tcp -e 1040 -c 0 -i 7 -a 0 -x {2.0 3.0 3 ------- null}
h -t 1.0400928 -s 2 -d 3 -p tcp -e 1040 -c 0 -i 7 -a 0 -x {2.0 3.0 -1 ------- null}
+ -t 1.0400928 -s 2 -d 3 -p tcp -e 1040 -c 0 -i 8 -a 0 -x {2.0 3.0 4 ------- null}
r -t 1.040176 -s 3 -d 2 -p ack -e 40 -c 0 -i 6 -a 0 -x {3.0 2.0 2 ------- null}
+ -t 1.040176 -s 2 -d 3 -p tcp -e 1040 -c 0 -i 9 -a 0 -x {2.0 3.0 5 ------- null}
+ -t 1.040176 -s 2 -d 3 -p tcp -e 1040 -c 0 -i 10 -a 0 -x {2.0 3.0 6 ------- null}
- -t 1.040176 -s 2 -d 3 -p tcp -e 1040 -c 0 -i 8 -a 0 -x {2.0 3.0 4 ------- null}
h -t 1.040176 -s 2 -d 3 -p tcp -e 1040 -c 0 -i 8 -a 0 -x {2.0 3.0 -1 ------- null}
- -t 1.0402592 -s 2 -d 3 -p tcp -e 1040 -c 0 -i 9 -a 0 -x {2.0 3.0 5 ------- null}
h -t 1.0402592 -s 2 -d 3 -p tcp -e 1040 -c 0 -i 9 -a 0 -x {2.0 3.0 -1 ------- null}
- -t 1.0403424 -s 2 -d 3 -p tcp -e 1040 -c 0 -i 10 -a 0 -x {2.0 3.0 6 ------- null}
h -t 1.0403424 -s 2 -d 3 -p tcp -e 1040 -c 0 -i 10 -a 0 -x {2.0 3.0 -1 ------- null}
r -t 1.050176 -s 2 -d 3 -p tcp -e 1040 -c 0 -i 7 -a 0 -x {2.0 3.0 3 ------- null}
+ -t 1.050176 -s 3 -d 2 -p ack -e 40 -c 0 -i 11 -a 0 -x {3.0 2.0 3 ------- null}
- -t 1.050176 -s 3 -d 2 -p ack -e 40 -c 0 -i 11 -a 0 -x {3.0 2.0 3 ------- null}
h -t 1.050176 -s 3 -d 2 -p ack -e 40 -c 0 -i 11 -a 0 -x {3.0 2.0 -1 ------- null}
r -t 1.0502592 -s 2 -d 3 -p tcp -e 1040 -c 0 -i 8 -a 0 -x {2.0 3.0 4 ------- null}
+ -t 1.0502592 -s 3 -d 2 -p ack -e 40 -c 0 -i 12 -a 0 -x {3.0 2.0 4 ------- null}
- -t 1.0502592 -s 3 -d 2 -p ack -e 40 -c 0 -i 12 -a 0 -x {3.0 2.0 4 ------- null}
h -t 1.0502592 -s 3 -d 2 -p ack -e 40 -c 0 -i 12 -a 0 -x {3.0 2.0 -1 ------- null}
r -t 1.0503424 -s 2 -d 3 -p tcp -e 1040 -c 0 -i 9 -a 0 -x {2.0 3.0 5 ------- null}
+ -t 1.0503424 -s 3 -d 2 -p ack -e 40 -c 0 -i 13 -a 0 -x {3.0 2.0 5 ------- null}
- -t 1.0503424 -s 3 -d 2 -p ack -e 40 -c 0 -i 13 -a 0 -x {3.0 2.0 5 ------- null}
h -t 1.0503424 -s 3 -d 2 -p ack -e 40 -c 0 -i 13 -a 0 -x {3.0 2.0 -1 ------- null}
r -t 1.0504256 -s 2 -d 3 -p tcp -e 1040 -c 0 -i 10 -a 0 -x {2.0 3.0 6 ------- null}
+ -t 1.0504256 -s 3 -d 2 -p ack -e 40 -c 0 -i 14 -a 0 -x {3.0 2.0 6 ------- null}
- -t 1.0504256 -s 3 -d 2 -p ack -e 40 -c 0 -i 14 -a 0 -x {3.0 2.0 6 ------- null}
h -t 1.0504256 -s 3 -d 2 -p ack -e 40 -c 0 -i 14 -a 0 -x {3.0 2.0 -1 ------- null}
r -t 1.0601792 -s 3 -d 2 -p ack -e 40 -c 0 -i 11 -a 0 -x {3.0 2.0 3 ------- null}
+ -t 1.0601792 -s 2 -d 3 -p tcp -e 1040 -c 0 -i 15 -a 0 -x {2.0 3.0 7 ------- null}
- -t 1.0601792 -s 2 -d 3 -p tcp -e 1040 -c 0 -i 15 -a 0 -x {2.0 3.0 7 ------- null}
h -t 1.0601792 -s 2 -d 3 -p tcp -e 1040 -c 0 -i 15 -a 0 -x {2.0 3.0 -1 ------- null}
+ -t 1.0601792 -s 2 -d 3 -p tcp -e 1040 -c 0 -i 16 -a 0 -x {2.0 3.0 8 ------- null}
r -t 1.0602624 -s 3 -d 2 -p ack -e 40 -c 0 -i 12 -a 0 -x {3.0 2.0 4 ------- null}
+ -t 1.0602624 -s 2 -d 3 -p tcp -e 1040 -c 0 -i 17 -a 0 -x {2.0 3.0 9 ------- null}
+ -t 1.0602624 -s 2 -d 3 -p tcp -e 1040 -c 0 -i 18 -a 0 -x {2.0 3.0 10 ------- null}
- -t 1.0602624 -s 2 -d 3 -p tcp -e 1040 -c 0 -i 16 -a 0 -x {2.0 3.0 8 ------- null}
h -t 1.0602624 -s 2 -d 3 -p tcp -e 1040 -c 0 -i 16 -a 0 -x {2.0 3.0 -1 ------- null}
r -t 1.0603456 -s 3 -d 2 -p ack -e 40 -c 0 -i 13 -a 0 -x {3.0 2.0 5 ------- null}
+ -t 1.0603456 -s 2 -d 3 -p tcp -e 1040 -c 0 -i 19 -a 0 -x {2.0 3.0 11 ------- null}
+ -t 1.0603456 -s 2 -d 3 -p tcp -e 1040 -c 0 -i 20 -a 0 -x {2.0 3.0 12 ------- null}
- -t 1.0603456 -s 2 -d 3 -p tcp -e 1040 -c 0 -i 17 -a 0 -x {2.0 3.0 9 ------- null}
h -t 1.0603456 -s 2 -d 3 -p tcp -e 1040 -c 0 -i 17 -a 0 -x {2.0 3.0 -1 ------- null}
r -t 1.0604288 -s 3 -d 2 -p ack -e 40 -c 0 -i 14 -a 0 -x {3.0 2.0 6 ------- null}
+ -t 1.0604288 -s 2 -d 3 -p tcp -e 1040 -c 0 -i 21 -a 0 -x {2.0 3.0 13 ------- null}
+ -t 1.0604288 -s 2 -d 3 -p tcp -e 1040 -c 0 -i 22 -a 0 -x {2.0 3.0 14 ------- null}
- -t 1.0604288 -s 2 -d 3 -p tcp -e 1040 -c 0 -i 18 -a 0 -x {2.0 3.0 10 ------- null}
h -t 1.0604288 -s 2 -d 3 -p tcp -e 1040 -c 0 -i 18 -a 0 -x {2.0 3.0 -1 ------- null}
- -t 1.060512 -s 2 -d 3 -p tcp -e 1040 -c 0 -i 19 -a 0 -x {2.0 3.0 11 ------- null}
h -t 1.060512 -s 2 -d 3 -p tcp -e 1040 -c 0 -i 19 -a 0 -x {2.0 3.0 -1 ------- null}
- -t 1.0605952 -s 2 -d 3 -p tcp -e 1040 -c 0 -i 20 -a 0 -x {2.0 3.0 12 ------- null}
h -t 1.0605952 -s 2 -d 3 -p tcp -e 1040 -c 0 -i 20 -a 0 -x {2.0 3.0 -1 ------- null}
- -t 1.0606784 -s 2 -d 3 -p tcp -e 1040 -c 0 -i 21 -a 0 -x {2.0 3.0 13 ------- null}
h -t 1.0606784 -s 2 -d 3 -p tcp -e 1040 -c 0 -i 21 -a 0 -x {2.0 3.0 -1 ------- null}
- -t 1.0607616 -s 2 -d 3 -p tcp -e 1040 -c 0 -i 22 -a 0 -x {2.0 3.0 14 ------- null}
h -t 1.0607616 -s 2 -d 3 -p tcp -e 1040 -c 0 -i 22 -a 0 -x {2.0 3.0 -1 ------- null}
+ -t 1.0632032 -s 3 -d 6 -p tcp -e 40 -c 0 -i 0 -a 0 -x {0.0 5.0 0 ------- null}
- -t 1.0632032 -s 3 -d 6 -p tcp -e 40 -c 0 -i 0 -a 0 -x {0.0 5.0 0 ------- null}
h -t 1.0632032 -s 3 -d 6 -p tcp -e 40 -c 0 -i 0 -a 0 -x {0.0 5.0 -1 ------- null}
d -t 1.0632072 -s 4 -d 6 -p tcp -e 40 -c 0 -i 0 -a 0 -x {0.0 5.0 0 ------- null}
r -t 1.0702624 -s 2 -d 3 -p tcp -e 1040 -c 0 -i 15 -a 0 -x {2.0 3.0 7 ------- null}
+ -t 1.0702624 -s 3 -d 2 -p ack -e 40 -c 0 -i 23 -a 0 -x {3.0 2.0 7 ------- null}
- -t 1.0702624 -s 3 -d 2 -p ack -e 40 -c 0 -i 23 -a 0 -x {3.0 2.0 7 ------- null}
h -t 1.0702624 -s 3 -d 2 -p ack -e 40 -c 0 -i 23 -a 0 -x {3.0 2.0 -1 ------- null}
r -t 1.0703456 -s 2 -d 3 -p tcp -e 1040 -c 0 -i 16 -a 0 -x {2.0 3.0 8 ------- null}
+ -t 1.0703456 -s 3 -d 2 -p ack -e 40 -c 0 -i 24 -a 0 -x {3.0 2.0 8 ------- null}
- -t 1.0703456 -s 3 -d 2 -p ack -e 40 -c 0 -i 24 -a 0 -x {3.0 2.0 8 ------- null}
h -t 1.0703456 -s 3 -d 2 -p ack -e 40 -c 0 -i 24 -a 0 -x {3.0 2.0 -1 ------- null}
r -t 1.0704288 -s 2 -d 3 -p tcp -e 1040 -c 0 -i 17 -a 0 -x {2.0 3.0 9 ------- null}
+ -t 1.0704288 -s 3 -d 2 -p ack -e 40 -c 0 -i 25 -a 0 -x {3.0 2.0 9 ------- null}
- -t 1.0704288 -s 3 -d 2 -p ack -e 40 -c 0 -i 25 -a 0 -x {3.0 2.0 9 ------- null}
h -t 1.0704288 -s 3 -d 2 -p ack -e 40 -c 0 -i 25 -a 0 -x {3.0 2.0 -1 ------- null}
r -t 1.070512 -s 2 -d 3 -p tcp -e 1040 -c 0 -i 18 -a 0 -x {2.0 3.0 10 ------- null}
+ -t 1.070512 -s 3 -d 2 -p ack -e 40 -c 0 -i 26 -a 0 -x {3.0 2.0 10 ------- null}
- -t 1.070512 -s 3 -d 2 -p ack -e 40 -c 0 -i 26 -a 0 -x {3.0 2.0 10 ------- null}
h -t 1.070512 -s 3 -d 2 -p ack -e 40 -c 0 -i 26 -a 0 -x {3.0 2.0 -1 ------- null}
r -t 1.0705952 -s 2 -d 3 -p tcp -e 1040 -c 0 -i 19 -a 0 -x {2.0 3.0 11 ------- null}
+ -t 1.0705952 -s 3 -d 2 -p ack -e 40 -c 0 -i 27 -a 0 -x {3.0 2.0 11 ------- null}
- -t 1.0705952 -s 3 -d 2 -p ack -e 40 -c 0 -i 27 -a 0 -x {3.0 2.0 11 ------- null}
h -t 1.0705952 -s 3 -d 2 -p ack -e 40 -c 0 -i 27 -a 0 -x {3.0 2.0 -1 ------- null}
r -t 1.0706784 -s 2 -d 3 -p tcp -e 1040 -c 0 -i 20 -a 0 -x {2.0 3.0 12 ------- null}
+ -t 1.0706784 -s 3 -d 2 -p ack -e 40 -c 0 -i 28 -a 0 -x {3.0 2.0 12 ------- null}
- -t 1.0706784 -s 3 -d 2 -p ack -e 40 -c 0 -i 28 -a 0 -x {3.0 2.0 12 ------- null}
h -t 1.0706784 -s 3 -d 2 -p ack -e 40 -c 0 -i 28 -a 0 -x {3.0 2.0 -1 ------- null}
r -t 1.0707616 -s 2 -d 3 -p tcp -e 1040 -c 0 -i 21 -a 0 -x {2.0 3.0 13 ------- null}
+ -t 1.0707616 -s 3 -d 2 -p ack -e 40 -c 0 -i 29 -a 0 -x {3.0 2.0 13 ------- null}
- -t 1.0707616 -s 3 -d 2 -p ack -e 40 -c 0 -i 29 -a 0 -x {3.0 2.0 13 ------- null}
h -t 1.0707616 -s 3 -d 2 -p ack -e 40 -c 0 -i 29 -a 0 -x {3.0 2.0 -1 ------- null}
r -t 1.0708448 -s 2 -d 3 -p tcp -e 1040 -c 0 -i 22 -a 0 -x {2.0 3.0 14 ------- null}
+ -t 1.0708448 -s 3 -d 2 -p ack -e 40 -c 0 -i 30 -a 0 -x {3.0 2.0 14 ------- null}
- -t 1.0708448 -s 3 -d 2 -p ack -e 40 -c 0 -i 30 -a 0 -x {3.0 2.0 14 ------- null}
h -t 1.0708448 -s 3 -d 2 -p ack -e 40 -c 0 -i 30 -a 0 -x {3.0 2.0 -1 ------- null}
r -t 1.0802656 -s 3 -d 2 -p ack -e 40 -c 0 -i 23 -a 0 -x {3.0 2.0 7 ------- null}
+ -t 1.0802656 -s 2 -d 3 -p tcp -e 1040 -c 0 -i 31 -a 0 -x {2.0 3.0 15 ------- null}
- -t 1.0802656 -s 2 -d 3 -p tcp -e 1040 -c 0 -i 31 -a 0 -x {2.0 3.0 15 ------- null}
h -t 1.0802656 -s 2 -d 3 -p tcp -e 1040 -c 0 -i 31 -a 0 -x {2.0 3.0 -1 ------- null}
+ -t 1.0802656 -s 2 -d 3 -p tcp -e 1040 -c 0 -i 32 -a 0 -x {2.0 3.0 16 ------- null}
r -t 1.0803488 -s 3 -d 2 -p ack -e 40 -c 0 -i 24 -a 0 -x {3.0 2.0 8 ------- null}
+ -t 1.0803488 -s 2 -d 3 -p tcp -e 1040 -c 0 -i 33 -a 0 -x {2.0 3.0 17 ------- null}
+ -t 1.0803488 -s 2 -d 3 -p tcp -e 1040 -c 0 -i 34 -a 0 -x {2.0 3.0 18 ------- null}
- -t 1.0803488 -s 2 -d 3 -p tcp -e 1040 -c 0 -i 32 -a 0 -x {2.0 3.0 16 ------- null}
h -t 1.0803488 -s 2 -d 3 -p tcp -e 1040 -c 0 -i 32 -a 0 -x {2.0 3.0 -1 ------- null}
r -t 1.080432 -s 3 -d 2 -p ack -e 40 -c 0 -i 25 -a 0 -x {3.0 2.0 9 ------- null}
+ -t 1.080432 -s 2 -d 3 -p tcp -e 1040 -c 0 -i 35 -a 0 -x {2.0 3.0 19 ------- null}
+ -t 1.080432 -s 2 -d 3 -p tcp -e 1040 -c 0 -i 36 -a 0 -x {2.0 3.0 20 ------- null}
- -t 1.080432 -s 2 -d 3 -p tcp -e 1040 -c 0 -i 33 -a 0 -x {2.0 3.0 17 ------- null}
h -t 1.080432 -s 2 -d 3 -p tcp -e 1040 -c 0 -i 33 -a 0 -x {2.0 3.0 -1 ------- null}
r -t 1.0805152 -s 3 -d 2 -p ack -e 40 -c 0 -i 26 -a 0 -x {3.0 2.0 10 ------- null}
+ -t 1.0805152 -s 2 -d 3 -p tcp -e 1040 -c 0 -i 37 -a 0 -x {2.0 3.0 21 ------- null}
+ -t 1.0805152 -s 2 -d 3 -p tcp -e 1040 -c 0 -i 38 -a 0 -x {2.0 3.0 22 ------- null}
- -t 1.0805152 -s 2 -d 3 -p tcp -e 1040 -c 0 -i 34 -a 0 -x {2.0 3.0 18 ------- null}
h -t 1.0805152 -s 2 -d 3 -p tcp -e 1040 -c 0 -i 34 -a 0 -x {2.0 3.0 -1 ------- null}
r -t 1.0805984 -s 3 -d 2 -p ack -e 40 -c 0 -i 27 -a 0 -x {3.0 2.0 11 ------- null}
+ -t 1.0805984 -s 2 -d 3 -p tcp -e 1040 -c 0 -i 39 -a 0 -x {2.0 3.0 23 ------- null}
+ -t 1.0805984 -s 2 -d 3 -p tcp -e 1040 -c 0 -i 40 -a 0 -x {2.0 3.0 24 ------- null}
- -t 1.0805984 -s 2 -d 3 -p tcp -e 1040 -c 0 -i 35 -a 0 -x {2.0 3.0 19 ------- null}
h -t 1.0805984 -s 2 -d 3 -p tcp -e 1040 -c 0 -i 35 -a 0 -x {2.0 3.0 -1 ------- null}
r -t 1.0806816 -s 3 -d 2 -p ack -e 40 -c 0 -i 28 -a 0 -x {3.0 2.0 12 ------- null}
+ -t 1.0806816 -s 2 -d 3 -p tcp -e 1040 -c 0 -i 41 -a 0 -x {2.0 3.0 25 ------- null}
+ -t 1.0806816 -s 2 -d 3 -p tcp -e 1040 -c 0 -i 42 -a 0 -x {2.0 3.0 26 ------- null}
- -t 1.0806816 -s 2 -d 3 -p tcp -e 1040 -c 0 -i 36 -a 0 -x {2.0 3.0 20 ------- null}
h -t 1.0806816 -s 2 -d 3 -p tcp -e 1040 -c 0 -i 36 -a 0 -x {2.0 3.0 -1 ------- null}
r -t 1.0807648 -s 3 -d 2 -p ack -e 40 -c 0 -i 29 -a 0 -x {3.0 2.0 13 ------- null}
+ -t 1.0807648 -s 2 -d 3 -p tcp -e 1040 -c 0 -i 43 -a 0 -x {2.0 3.0 27 ------- null}
+ -t 1.0807648 -s 2 -d 3 -p tcp -e 1040 -c 0 -i 44 -a 0 -x {2.0 3.0 28 ------- null}
- -t 1.0807648 -s 2 -d 3 -p tcp -e 1040 -c 0 -i 37 -a 0 -x {2.0 3.0 21 ------- null}
h -t 1.0807648 -s 2 -d 3 -p tcp -e 1040 -c 0 -i 37 -a 0 -x {2.0 3.0 -1 ------- null}
r -t 1.080848 -s 3 -d 2 -p ack -e 40 -c 0 -i 30 -a 0 -x {3.0 2.0 14 ------- null}
+ -t 1.080848 -s 2 -d 3 -p tcp -e 1040 -c 0 -i 45 -a 0 -x {2.0 3.0 29 ------- null}
+ -t 1.080848 -s 2 -d 3 -p tcp -e 1040 -c 0 -i 46 -a 0 -x {2.0 3.0 30 ------- null}
- -t 1.080848 -s 2 -d 3 -p tcp -e 1040 -c 0 -i 38 -a 0 -x {2.0 3.0 22 ------- null}
h -t 1.080848 -s 2 -d 3 -p tcp -e 1040 -c 0 -i 38 -a 0 -x {2.0 3.0 -1 ------- null}
- -t 1.0809312 -s 2 -d 3 -p tcp -e 1040 -c 0 -i 39 -a 0 -x {2.0 3.0 23 ------- null}
h -t 1.0809312 -s 2 -d 3 -p tcp -e 1040 -c 0 -i 39 -a 0 -x {2.0 3.0 -1 ------- null}
- -t 1.0810144 -s 2 -d 3 -p tcp -e 1040 -c 0 -i 40 -a 0 -x {2.0 3.0 24 ------- null}
h -t 1.0810144 -s 2 -d 3 -p tcp -e 1040 -c 0 -i 40 -a 0 -x {2.0 3.0 -1 ------- null}
- -t 1.0810976 -s 2 -d 3 -p tcp -e 1040 -c 0 -i 41 -a 0 -x {2.0 3.0 25 ------- null}
h -t 1.0810976 -s 2 -d 3 -p tcp -e 1040 -c 0 -i 41 -a 0 -x {2.0 3.0 -1 ------- null}
- -t 1.0811808 -s 2 -d 3 -p tcp -e 1040 -c 0 -i 42 -a 0 -x {2.0 3.0 26 ------- null}
h -t 1.0811808 -s 2 -d 3 -p tcp -e 1040 -c 0 -i 42 -a 0 -x {2.0 3.0 -1 ------- null}
- -t 1.081264 -s 2 -d 3 -p tcp -e 1040 -c 0 -i 43 -a 0 -x {2.0 3.0 27 ------- null}
h -t 1.081264 -s 2 -d 3 -p tcp -e 1040 -c 0 -i 43 -a 0 -x {2.0 3.0 -1 ------- null}
- -t 1.0813472 -s 2 -d 3 -p tcp -e 1040 -c 0 -i 44 -a 0 -x {2.0 3.0 28 ------- null}
h -t 1.0813472 -s 2 -d 3 -p tcp -e 1040 -c 0 -i 44 -a 0 -x {2.0 3.0 -1 ------- null}
- -t 1.0814304 -s 2 -d 3 -p tcp -e 1040 -c 0 -i 45 -a 0 -x {2.0 3.0 29 ------- null}
h -t 1.0814304 -s 2 -d 3 -p tcp -e 1040 -c 0 -i 45 -a 0 -x {2.0 3.0 -1 ------- null}
- -t 1.0815136 -s 2 -d 3 -p tcp -e 1040 -c 0 -i 46 -a 0 -x {2.0 3.0 30 ------- null}
h -t 1.0815136 -s 2 -d 3 -p tcp -e 1040 -c 0 -i 46 -a 0 -x {2.0 3.0 -1 ------- null}
r -t 1.0903488 -s 2 -d 3 -p tcp -e 1040 -c 0 -i 31 -a 0 -x {2.0 3.0 15 ------- null}
+ -t 1.0903488 -s 3 -d 2 -p ack -e 40 -c 0 -i 47 -a 0 -x {3.0 2.0 15 ------- null}
- -t 1.0903488 -s 3 -d 2 -p ack -e 40 -c 0 -i 47 -a 0 -x {3.0 2.0 15 ------- null}
h -t 1.0903488 -s 3 -d 2 -p ack -e 40 -c 0 -i 47 -a 0 -x {3.0 2.0 -1 ------- null}
r -t 1.090432 -s 2 -d 3 -p tcp -e 1040 -c 0 -i 32 -a 0 -x {2.0 3.0 16 ------- null}
+ -t 1.090432 -s 3 -d 2 -p ack -e 40 -c 0 -i 48 -a 0 -x {3.0 2.0 16 ------- null}
- -t 1.090432 -s 3 -d 2 -p ack -e 40 -c 0 -i 48 -a 0 -x {3.0 2.0 16 ------- null}
h -t 1.090432 -s 3 -d 2 -p ack -e 40 -c 0 -i 48 -a 0 -x {3.0 2.0 -1 ------- null}
r -t 1.0905152 -s 2 -d 3 -p tcp -e 1040 -c 0 -i 33 -a 0 -x {2.0 3.0 17 ------- null}
+ -t 1.0905152 -s 3 -d 2 -p ack -e 40 -c 0 -i 49 -a 0 -x {3.0 2.0 17 ------- null}
- -t 1.0905152 -s 3 -d 2 -p ack -e 40 -c 0 -i 49 -a 0 -x {3.0 2.0 17 ------- null}
h -t 1.0905152 -s 3 -d 2 -p ack -e 40 -c 0 -i 49 -a 0 -x {3.0 2.0 -1 ------- null}
r -t 1.0905984 -s 2 -d 3 -p tcp -e 1040 -c 0 -i 34 -a 0 -x {2.0 3.0 18 ------- null}
+ -t 1.0905984 -s 3 -d 2 -p ack -e 40 -c 0 -i 50 -a 0 -x {3.0 2.0 18 ------- null}
- -t 1.0905984 -s 3 -d 2 -p ack -e 40 -c 0 -i 50 -a 0 -x {3.0 2.0 18 ------- null}
h -t 1.0905984 -s 3 -d 2 -p ack -e 40 -c 0 -i 50 -a 0 -x {3.0 2.0 -1 ------- null}
r -t 1.0906816 -s 2 -d 3 -p tcp -e 1040 -c 0 -i 35 -a 0 -x {2.0 3.0 19 ------- null}
+ -t 1.0906816 -s 3 -d 2 -p ack -e 40 -c 0 -i 51 -a 0 -x {3.0 2.0 19 ------- null}
- -t 1.0906816 -s 3 -d 2 -p ack -e 40 -c 0 -i 51 -a 0 -x {3.0 2.0 19 ------- null}
h -t 1.0906816 -s 3 -d 2 -p ack -e 40 -c 0 -i 51 -a 0 -x {3.0 2.0 -1 ------- null}
r -t 1.0907648 -s 2 -d 3 -p tcp -e 1040 -c 0 -i 36 -a 0 -x {2.0 3.0 20 ------- null}
+ -t 1.0907648 -s 3 -d 2 -p ack -e 40 -c 0 -i 52 -a 0 -x {3.0 2.0 20 ------- null}
- -t 1.0907648 -s 3 -d 2 -p ack -e 40 -c 0 -i 52 -a 0 -x {3.0 2.0 20 ------- null}
h -t 1.0907648 -s 3 -d 2 -p ack -e 40 -c 0 -i 52 -a 0 -x {3.0 2.0 -1 ------- null}
r -t 1.090848 -s 2 -d 3 -p tcp -e 1040 -c 0 -i 37 -a 0 -x {2.0 3.0 21 ------- null}
+ -t 1.090848 -s 3 -d 2 -p ack -e 40 -c 0 -i 53 -a 0 -x {3.0 2.0 21 ------- null}
- -t 1.090848 -s 3 -d 2 -p ack -e 40 -c 0 -i 53 -a 0 -x {3.0 2.0 21 ------- null}
h -t 1.090848 -s 3 -d 2 -p ack -e 40 -c 0 -i 53 -a 0 -x {3.0 2.0 -1 ------- null}
r -t 1.0909312 -s 2 -d 3 -p tcp -e 1040 -c 0 -i 38 -a 0 -x {2.0 3.0 22 ------- null}
+ -t 1.0909312 -s 3 -d 2 -p ack -e 40 -c 0 -i 54 -a 0 -x {3.0 2.0 22 ------- null}
- -t 1.0909312 -s 3 -d 2 -p ack -e 40 -c 0 -i 54 -a 0 -x {3.0 2.0 22 ------- null}
h -t 1.0909312 -s 3 -d 2 -p ack -e 40 -c 0 -i 54 -a 0 -x {3.0 2.0 -1 ------- null}
r -t 1.0910144 -s 2 -d 3 -p tcp -e 1040 -c 0 -i 39 -a 0 -x {2.0 3.0 23 ------- null}
+ -t 1.0910144 -s 3 -d 2 -p ack -e 40 -c 0 -i 55 -a 0 -x {3.0 2.0 23 ------- null}
- -t 1.0910144 -s 3 -d 2 -p ack -e 40 -c 0 -i 55 -a 0 -x {3.0 2.0 23 ------- null}
h -t 1.0910144 -s 3 -d 2 -p ack -e 40 -c 0 -i 55 -a 0 -x {3.0 2.0 -1 ------- null}
r -t 1.0910976 -s 2 -d 3 -p tcp -e 1040 -c 0 -i 40 -a 0 -x {2.0 3.0 24 ------- null}
+ -t 1.0910976 -s 3 -d 2 -p ack -e 40 -c 0 -i 56 -a 0 -x {3.0 2.0 24 ------- null}
- -t 1.0910976 -s 3 -d 2 -p ack -e 40 -c 0 -i 56 -a 0 -x {3.0 2.0 24 ------- null}
h -t 1.0910976 -s 3 -d 2 -p ack -e 40 -c 0 -i 56 -a 0 -x {3.0 2.0 -1 ------- null}
r -t 1.0911808 -s 2 -d 3 -p tcp -e 1040 -c 0 -i 41 -a 0 -x {2.0 3.0 25 ------- null}
+ -t 1.0911808 -s 3 -d 2 -p ack -e 40 -c 0 -i 57 -a 0 -x {3.0 2.0 25 ------- null}
- -t 1.0911808 -s 3 -d 2 -p ack -e 40 -c 0 -i 57 -a 0 -x {3.0 2.0 25 ------- null}
h -t 1.0911808 -s 3 -d 2 -p ack -e 40 -c 0 -i 57 -a 0 -x {3.0 2.0 -1 ------- null}
r -t 1.091264 -s 2 -d 3 -p tcp -e 1040 -c 0 -i 42 -a 0 -x {2.0 3.0 26 ------- null}
+ -t 1.091264 -s 3 -d 2 -p ack -e 40 -c 0 -i 58 -a 0 -x {3.0 2.0 26 ------- null}
- -t 1.091264 -s 3 -d 2 -p ack -e 40 -c 0 -i 58 -a 0 -x {3.0 2.0 26 ------- null}
h -t 1.091264 -s 3 -d 2 -p ack -e 40 -c 0 -i 58 -a 0 -x {3.0 2.0 -1 ------- null}
r -t 1.0913472 -s 2 -d 3 -p tcp -e 1040 -c 0 -i 43 -a 0 -x {2.0 3.0 27 ------- null}
+ -t 1.0913472 -s 3 -d 2 -p ack -e 40 -c 0 -i 59 -a 0 -x {3.0 2.0 27 ------- null}
- -t 1.0913472 -s 3 -d 2 -p ack -e 40 -c 0 -i 59 -a 0 -x {3.0 2.0 27 ------- null}
h -t 1.0913472 -s 3 -d 2 -p ack -e 40 -c 0 -i 59 -a 0 -x {3.0 2.0 -1 ------- null}
r -t 1.0914304 -s 2 -d 3 -p tcp -e 1040 -c 0 -i 44 -a 0 -x {2.0 3.0 28 ------- null}
+ -t 1.0914304 -s 3 -d 2 -p ack -e 40 -c 0 -i 60 -a 0 -x {3.0 2.0 28 ------- null}
- -t 1.0914304 -s 3 -d 2 -p ack -e 40 -c 0 -i 60 -a 0 -x {3.0 2.0 28 ------- null}
h -t 1.0914304 -s 3 -d 2 -p ack -e 40 -c 0 -i 60 -a 0 -x {3.0 2.0 -1 ------- null}
r -t 1.0915136 -s 2 -d 3 -p tcp -e 1040 -c 0 -i 45 -a 0 -x {2.0 3.0 29 ------- null}
+ -t 1.0915136 -s 3 -d 2 -p ack -e 40 -c 0 -i 61 -a 0 -x {3.0 2.0 29 ------- null}
- -t 1.0915136 -s 3 -d 2 -p ack -e 40 -c 0 -i 61 -a 0 -x {3.0 2.0 29 ------- null}
h -t 1.0915136 -s 3 -d 2 -p ack -e 40 -c 0 -i 61 -a 0 -x {3.0 2.0 -1 ------- null}
r -t 1.0915968 -s 2 -d 3 -p tcp -e 1040 -c 0 -i 46 -a 0 -x {2.0 3.0 30 ------- null}
+ -t 1.0915968 -s 3 -d 2 -p ack -e 40 -c 0 -i 62 -a 0 -x {3.0 2.0 30 ------- null}
- -t 1.0915968 -s 3 -d 2 -p ack -e 40 -c 0 -i 62 -a 0 -x {3.0 2.0 30 ------- null}
h -t 1.0915968 -s 3 -d 2 -p ack -e 40 -c 0 -i 62 -a 0 -x {3.0 2.0 -1 ------- null}
r -t 1.100352 -s 3 -d 2 -p ack -e 40 -c 0 -i 47 -a 0 -x {3.0 2.0 15 ------- null}
+ -t 1.100352 -s 2 -d 3 -p tcp -e 1040 -c 0 -i 63 -a 0 -x {2.0 3.0 31 ------- null}
- -t 1.100352 -s 2 -d 3 -p tcp -e 1040 -c 0 -i 63 -a 0 -x {2.0 3.0 31 ------- null}
h -t 1.100352 -s 2 -d 3 -p tcp -e 1040 -c 0 -i 63 -a 0 -x {2.0 3.0 -1 ------- null}
+ -t 1.100352 -s 2 -d 3 -p tcp -e 1040 -c 0 -i 64 -a 0 -x {2.0 3.0 32 ------- null}
r -t 1.1004352 -s 3 -d 2 -p ack -e 40 -c 0 -i 48 -a 0 -x {3.0 2.0 16 ------- null}
+ -t 1.1004352 -s 2 -d 3 -p tcp -e 1040 -c 0 -i 65 -a 0 -x {2.0 3.0 33 ------- null}
+ -t 1.1004352 -s 2 -d 3 -p tcp -e 1040 -c 0 -i 66 -a 0 -x {2.0 3.0 34 ------- null}
- -t 1.1004352 -s 2 -d 3 -p tcp -e 1040 -c 0 -i 64 -a 0 -x {2.0 3.0 32 ------- null}
h -t 1.1004352 -s 2 -d 3 -p tcp -e 1040 -c 0 -i 64 -a 0 -x {2.0 3.0 -1 ------- null}
r -t 1.1005184 -s 3 -d 2 -p ack -e 40 -c 0 -i 49 -a 0 -x {3.0 2.0 17 ------- null}
+ -t 1.1005184 -s 2 -d 3 -p tcp -e 1040 -c 0 -i 67 -a 0 -x {2.0 3.0 35 ------- null}
+ -t 1.1005184 -s 2 -d 3 -p tcp -e 1040 -c 0 -i 68 -a 0 -x {2.0 3.0 36 ------- null}
- -t 1.1005184 -s 2 -d 3 -p tcp -e 1040 -c 0 -i 65 -a 0 -x {2.0 3.0 33 ------- null}
h -t 1.1005184 -s 2 -d 3 -p tcp -e 1040 -c 0 -i 65 -a 0 -x {2.0 3.0 -1 ------- null}
r -t 1.1006016 -s 3 -d 2 -p ack -e 40 -c 0 -i 50 -a 0 -x {3.0 2.0 18 ------- null}
+ -t 1.1006016 -s 2 -d 3 -p tcp -e 1040 -c 0 -i 69 -a 0 -x {2.0 3.0 37 ------- null}
+ -t 1.1006016 -s 2 -d 3 -p tcp -e 1040 -c 0 -i 70 -a 0 -x {2.0 3.0 38 ------- null}
- -t 1.1006016 -s 2 -d 3 -p tcp -e 1040 -c 0 -i 66 -a 0 -x {2.0 3.0 34 ------- null}
h -t 1.1006016 -s 2 -d 3 -p tcp -e 1040 -c 0 -i 66 -a 0 -x {2.0 3.0 -1 ------- null}
r -t 1.1006848 -s 3 -d 2 -p ack -e 40 -c 0 -i 51 -a 0 -x {3.0 2.0 19 ------- null}
+ -t 1.1006848 -s 2 -d 3 -p tcp -e 1040 -c 0 -i 71 -a 0 -x {2.0 3.0 39 ------- null}
- -t 1.1006848 -s 2 -d 3 -p tcp -e 1040 -c 0 -i 67 -a 0 -x {2.0 3.0 35 ------- null}
h -t 1.1006848 -s 2 -d 3 -p tcp -e 1040 -c 0 -i 67 -a 0 -x {2.0 3.0 -1 ------- null}
r -t 1.100768 -s 3 -d 2 -p ack -e 40 -c 0 -i 52 -a 0 -x {3.0 2.0 20 ------- null}
+ -t 1.100768 -s 2 -d 3 -p tcp -e 1040 -c 0 -i 72 -a 0 -x {2.0 3.0 40 ------- null}
- -t 1.100768 -s 2 -d 3 -p tcp -e 1040 -c 0 -i 68 -a 0 -x {2.0 3.0 36 ------- null}
h -t 1.100768 -s 2 -d 3 -p tcp -e 1040 -c 0 -i 68 -a 0 -x {2.0 3.0 -1 ------- null}
r -t 1.1008512 -s 3 -d 2 -p ack -e 40 -c 0 -i 53 -a 0 -x {3.0 2.0 21 ------- null}
+ -t 1.1008512 -s 2 -d 3 -p tcp -e 1040 -c 0 -i 73 -a 0 -x {2.0 3.0 41 ------- null}
- -t 1.1008512 -s 2 -d 3 -p tcp -e 1040 -c 0 -i 69 -a 0 -x {2.0 3.0 37 ------- null}
h -t 1.1008512 -s 2 -d 3 -p tcp -e 1040 -c 0 -i 69 -a 0 -x {2.0 3.0 -1 ------- null}
r -t 1.1009344 -s 3 -d 2 -p ack -e 40 -c 0 -i 54 -a 0 -x {3.0 2.0 22 ------- null}
+ -t 1.1009344 -s 2 -d 3 -p tcp -e 1040 -c 0 -i 74 -a 0 -x {2.0 3.0 42 ------- null}
- -t 1.1009344 -s 2 -d 3 -p tcp -e 1040 -c 0 -i 70 -a 0 -x {2.0 3.0 38 ------- null}
h -t 1.1009344 -s 2 -d 3 -p tcp -e 1040 -c 0 -i 70 -a 0 -x {2.0 3.0 -1 ------- null}
r -t 1.1010176 -s 3 -d 2 -p ack -e 40 -c 0 -i 55 -a 0 -x {3.0 2.0 23 ------- null}
+ -t 1.1010176 -s 2 -d 3 -p tcp -e 1040 -c 0 -i 75 -a 0 -x {2.0 3.0 43 ------- null}
- -t 1.1010176 -s 2 -d 3 -p tcp -e 1040 -c 0 -i 71 -a 0 -x {2.0 3.0 39 ------- null}
h -t 1.1010176 -s 2 -d 3 -p tcp -e 1040 -c 0 -i 71 -a 0 -x {2.0 3.0 -1 ------- null}
r -t 1.1011008 -s 3 -d 2 -p ack -e 40 -c 0 -i 56 -a 0 -x {3.0 2.0 24 ------- null}
+ -t 1.1011008 -s 2 -d 3 -p tcp -e 1040 -c 0 -i 76 -a 0 -x {2.0 3.0 44 ------- null}
- -t 1.1011008 -s 2 -d 3 -p tcp -e 1040 -c 0 -i 72 -a 0 -x {2.0 3.0 40 ------- null}
h -t 1.1011008 -s 2 -d 3 -p tcp -e 1040 -c 0 -i 72 -a 0 -x {2.0 3.0 -1 ------- null}
r -t 1.101184 -s 3 -d 2 -p ack -e 40 -c 0 -i 57 -a 0 -x {3.0 2.0 25 ------- null}
+ -t 1.101184 -s 2 -d 3 -p tcp -e 1040 -c 0 -i 77 -a 0 -x {2.0 3.0 45 ------- null}
- -t 1.101184 -s 2 -d 3 -p tcp -e 1040 -c 0 -i 73 -a 0 -x {2.0 3.0 41 ------- null}
h -t 1.101184 -s 2 -d 3 -p tcp -e 1040 -c 0 -i 73 -a 0 -x {2.0 3.0 -1 ------- null}
r -t 1.1012672 -s 3 -d 2 -p ack -e 40 -c 0 -i 58 -a 0 -x {3.0 2.0 26 ------- null}
+ -t 1.1012672 -s 2 -d 3 -p tcp -e 1040 -c 0 -i 78 -a 0 -x {2.0 3.0 46 ------- null}
- -t 1.1012672 -s 2 -d 3 -p tcp -e 1040 -c 0 -i 74 -a 0 -x {2.0 3.0 42 ------- null}
h -t 1.1012672 -s 2 -d 3 -p tcp -e 1040 -c 0 -i 74 -a 0 -x {2.0 3.0 -1 ------- null}
r -t 1.1013504 -s 3 -d 2 -p ack -e 40 -c 0 -i 59 -a 0 -x {3.0 2.0 27 ------- null}
+ -t 1.1013504 -s 2 -d 3 -p tcp -e 1040 -c 0 -i 79 -a 0 -x {2.0 3.0 47 ------- null}
- -t 1.1013504 -s 2 -d 3 -p tcp -e 1040 -c 0 -i 75 -a 0 -x {2.0 3.0 43 ------- null}
h -t 1.1013504 -s 2 -d 3 -p tcp -e 1040 -c 0 -i 75 -a 0 -x {2.0 3.0 -1 ------- null}
r -t 1.1014336 -s 3 -d 2 -p ack -e 40 -c 0 -i 60 -a 0 -x {3.0 2.0 28 ------- null}
+ -t 1.1014336 -s 2 -d 3 -p tcp -e 1040 -c 0 -i 80 -a 0 -x {2.0 3.0 48 ------- null}
- -t 1.1014336 -s 2 -d 3 -p tcp -e 1040 -c 0 -i 76 -a 0 -x {2.0 3.0 44 ------- null}
h -t 1.1014336 -s 2 -d 3 -p tcp -e 1040 -c 0 -i 76 -a 0 -x {2.0 3.0 -1 ------- null}
r -t 1.1015168 -s 3 -d 2 -p ack -e 40 -c 0 -i 61 -a 0 -x {3.0 2.0 29 ------- null}
+ -t 1.1015168 -s 2 -d 3 -p tcp -e 1040 -c 0 -i 81 -a 0 -x {2.0 3.0 49 ------- null}
- -t 1.1015168 -s 2 -d 3 -p tcp -e 1040 -c 0 -i 77 -a 0 -x {2.0 3.0 45 ------- null}
h -t 1.1015168 -s 2 -d 3 -p tcp -e 1040 -c 0 -i 77 -a 0 -x {2.0 3.0 -1 ------- null}
r -t 1.1016 -s 3 -d 2 -p ack -e 40 -c 0 -i 62 -a 0 -x {3.0 2.0 30 ------- null}
+ -t 1.1016 -s 2 -d 3 -p tcp -e 1040 -c 0 -i 82 -a 0 -x {2.0 3.0 50 ------- null}
- -t 1.1016 -s 2 -d 3 -p tcp -e 1040 -c 0 -i 78 -a 0 -x {2.0 3.0 46 ------- null}
h -t 1.1016 -s 2 -d 3 -p tcp -e 1040 -c 0 -i 78 -a 0 -x {2.0 3.0 -1 ------- null}
- -t 1.1016832 -s 2 -d 3 -p tcp -e 1040 -c 0 -i 79 -a 0 -x {2.0 3.0 47 ------- null}
h -t 1.1016832 -s 2 -d 3 -p tcp -e 1040 -c 0 -i 79 -a 0 -x {2.0 3.0 -1 ------- null}
- -t 1.1017664 -s 2 -d 3 -p tcp -e 1040 -c 0 -i 80 -a 0 -x {2.0 3.0 48 ------- null}
h -t 1.1017664 -s 2 -d 3 -p tcp -e 1040 -c 0 -i 80 -a 0 -x {2.0 3.0 -1 ------- null}
- -t 1.1018496 -s 2 -d 3 -p tcp -e 1040 -c 0 -i 81 -a 0 -x {2.0 3.0 49 ------- null}
h -t 1.1018496 -s 2 -d 3 -p tcp -e 1040 -c 0 -i 81 -a 0 -x {2.0 3.0 -1 ------- null}
- -t 1.1019328 -s 2 -d 3 -p tcp -e 1040 -c 0 -i 82 -a 0 -x {2.0 3.0 50 ------- null}
h -t 1.1019328 -s 2 -d 3 -p tcp -e 1040 -c 0 -i 82 -a 0 -x {2.0 3.0 -1 ------- null}
r -t 1.1032072 -s 6 -d 5 -p tcp -e 40 -c 0 -i 0 -a 0 -x {0.0 5.0 0 ------- null}
h -t 1.1032072 -s 5 -d 6 -p ack -e 40 -c 0 -i 83 -a 0 -x {5.0 0.0 0 ------- null}
r -t 1.1104352 -s 2 -d 3 -p tcp -e 1040 -c 0 -i 63 -a 0 -x {2.0 3.0 31 ------- null}
+ -t 1.1104352 -s 3 -d 2 -p ack -e 40 -c 0 -i 84 -a 0 -x {3.0 2.0 31 ------- null}
- -t 1.1104352 -s 3 -d 2 -p ack -e 40 -c 0 -i 84 -a 0 -x {3.0 2.0 31 ------- null}
h -t 1.1104352 -s 3 -d 2 -p ack -e 40 -c 0 -i 84 -a 0 -x {3.0 2.0 -1 ------- null}
r -t 1.1105184 -s 2 -d 3 -p tcp -e 1040 -c 0 -i 64 -a 0 -x {2.0 3.0 32 ------- null}
+ -t 1.1105184 -s 3 -d 2 -p ack -e 40 -c 0 -i 85 -a 0 -x {3.0 2.0 32 ------- null}
- -t 1.1105184 -s 3 -d 2 -p ack -e 40 -c 0 -i 85 -a 0 -x {3.0 2.0 32 ------- null}
h -t 1.1105184 -s 3 -d 2 -p ack -e 40 -c 0 -i 85 -a 0 -x {3.0 2.0 -1 ------- null}
r -t 1.1106016 -s 2 -d 3 -p tcp -e 1040 -c 0 -i 65 -a 0 -x {2.0 3.0 33 ------- null}
+ -t 1.1106016 -s 3 -d 2 -p ack -e 40 -c 0 -i 86 -a 0 -x {3.0 2.0 33 ------- null}
- -t 1.1106016 -s 3 -d 2 -p ack -e 40 -c 0 -i 86 -a 0 -x {3.0 2.0 33 ------- null}
h -t 1.1106016 -s 3 -d 2 -p ack -e 40 -c 0 -i 86 -a 0 -x {3.0 2.0 -1 ------- null}
r -t 1.1106848 -s 2 -d 3 -p tcp -e 1040 -c 0 -i 66 -a 0 -x {2.0 3.0 34 ------- null}
+ -t 1.1106848 -s 3 -d 2 -p ack -e 40 -c 0 -i 87 -a 0 -x {3.0 2.0 34 ------- null}
- -t 1.1106848 -s 3 -d 2 -p ack -e 40 -c 0 -i 87 -a 0 -x {3.0 2.0 34 ------- null}
h -t 1.1106848 -s 3 -d 2 -p ack -e 40 -c 0 -i 87 -a 0 -x {3.0 2.0 -1 ------- null}
r -t 1.110768 -s 2 -d 3 -p tcp -e 1040 -c 0 -i 67 -a 0 -x {2.0 3.0 35 ------- null}
+ -t 1.110768 -s 3 -d 2 -p ack -e 40 -c 0 -i 88 -a 0 -x {3.0 2.0 35 ------- null}
- -t 1.110768 -s 3 -d 2 -p ack -e 40 -c 0 -i 88 -a 0 -x {3.0 2.0 35 ------- null}
h -t 1.110768 -s 3 -d 2 -p ack -e 40 -c 0 -i 88 -a 0 -x {3.0 2.0 -1 ------- null}
r -t 1.1108512 -s 2 -d 3 -p tcp -e 1040 -c 0 -i 68 -a 0 -x {2.0 3.0 36 ------- null}
+ -t 1.1108512 -s 3 -d 2 -p ack -e 40 -c 0 -i 89 -a 0 -x {3.0 2.0 36 ------- null}
- -t 1.1108512 -s 3 -d 2 -p ack -e 40 -c 0 -i 89 -a 0 -x {3.0 2.0 36 ------- null}
h -t 1.1108512 -s 3 -d 2 -p ack -e 40 -c 0 -i 89 -a 0 -x {3.0 2.0 -1 ------- null}
r -t 1.1109344 -s 2 -d 3 -p tcp -e 1040 -c 0 -i 69 -a 0 -x {2.0 3.0 37 ------- null}
+ -t 1.1109344 -s 3 -d 2 -p ack -e 40 -c 0 -i 90 -a 0 -x {3.0 2.0 37 ------- null}